+ 1 0 3 cbr 210 ------- 0 0.0 5.0 0 0
- 1 0 3 cbr 210 ------- 0 0.0 5.0 0 0
+ 1 1 3 tcp 40 ------- 0 1.0 6.0 0 1
- 1 1 3 tcp 40 ------- 0 1.0 6.0 0 1
r 1.002107 1 3 tcp 40 ------- 0 1.0 6.0 0 1
+ 1.002107 3 4 tcp 40 ------- 0 1.0 6.0 0 1
- 1.002107 3 4 tcp 40 ------- 0 1.0 6.0 0 1
r 1.00256 0 3 cbr 210 ------- 0 0.0 5.0 0 0
+ 1.00256 3 4 cbr 210 ------- 0 0.0 5.0 0 0
- 1.00256 3 4 cbr 210 ------- 0 0.0 5.0 0 0
+ 1.00375 0 3 cbr 210 ------- 0 0.0 5.0 1 2
- 1.00375 0 3 cbr 210 ------- 0 0.0 5.0 1 2
r 1.00631 0 3 cbr 210 ------- 0 0.0 5.0 1 2
+ 1.00631 3 4 cbr 210 ------- 0 0.0 5.0 1 2
- 1.00631 3 4 cbr 210 ------- 0 0.0 5.0 1 2
r 1.007152 3 4 tcp 40 ------- 0 1.0 6.0 0 1
+ 1.007152 4 6 tcp 40 ------- 0 1.0 6.0 0 1
- 1.007152 4 6 tcp 40 ------- 0 1.0 6.0 0 1
+ 1.0075 0 3 cbr 210 ------- 0 0.0 5.0 2 3
- 1.0075 0 3 cbr 210 ------- 0 0.0 5.0 2 3
r 1.0078 3 4 cbr 210 ------- 0 0.0 5.0 0 0
+ 1.0078 4 5 cbr 210 ------- 0 0.0 5.0 0 0
- 1.0078 4 5 cbr 210 ------- 0 0.0 5.0 0 0
r 1.009232 4 6 tcp 40 ------- 0 1.0 6.0 0 1
+ 1.009232 6 4 ack 40 ------- 0 6.0 1.0 0 4
- 1.009232 6 4 ack 40 ------- 0 6.0 1.0 0 4
r 1.01006 0 3 cbr 210 ------- 0 0.0 5.0 2 3
+ 1.01006 3 4 cbr 210 ------- 0 0.0 5.0 2 3
- 1.01006 3 4 cbr 210 ------- 0 0.0 5.0 2 3
r 1.01022 4 5 cbr 210 ------- 0 0.0 5.0 0 0
+ 1.01125 0 3 cbr 210 ------- 0 0.0 5.0 3 5
- 1.01125 0 3 cbr 210 ------- 0 0.0 5.0 3 5
r 1.011312 6 4 ack 40 ------- 0 6.0 1.0 0 4
+ 1.011312 4 3 ack 40 ------- 0 6.0 1.0 0 4
- 1.011312 4 3 ack 40 ------- 0 6.0 1.0 0 4
r 1.01155 3 4 cbr 210 ------- 0 0.0 5.0 1 2
+ 1.01155 4 5 cbr 210 ------- 0 0.0 5.0 1 2
- 1.01155 4 5 cbr 210 ------- 0 0.0 5.0 1 2
r 1.01381 0 3 cbr 210 ------- 0 0.0 5.0 3 5
+ 1.01381 3 4 cbr 210 ------- 0 0.0 5.0 3 5
- 1.01381 3 4 cbr 210 ------- 0 0.0 5.0 3 5
r 1.01397 4 5 cbr 210 ------- 0 0.0 5.0 1 2
+ 1.015 0 3 cbr 210 ------- 0 0.0 5.0 4 6
- 1.015 0 3 cbr 210 ------- 0 0.0 5.0 4 6
r 1.0153 3 4 cbr 210 ------- 0 0.0 5.0 2 3
+ 1.0153 4 5 cbr 210 ------- 0 0.0 5.0 2 3
- 1.0153 4 5 cbr 210 ------- 0 0.0 5.0 2 3
r 1.016358 4 3 ack 40 ------- 0 6.0 1.0 0 4
+ 1.016358 3 1 ack 40 ------- 0 6.0 1.0 0 4
- 1.016358 3 1 ack 40 ------- 0 6.0 1.0 0 4
r 1.01756 0 3 cbr 210 ------- 0 0.0 5.0 4 6
+ 1.01756 3 4 cbr 210 ------- 0 0.0 5.0 4 6
- 1.01756 3 4 cbr 210 ------- 0 0.0 5.0 4 6
r 1.01772 4 5 cbr 210 ------- 0 0.0 5.0 2 3
r 1.018465 3 1 ack 40 ------- 0 6.0 1.0 0 4
+ 1.018465 1 3 tcp 1040 ------- 0 1.0 6.0 1 7
- 1.018465 1 3 tcp 1040 ------- 0 1.0 6.0 1 7
+ 1.018465 1 3 tcp 1040 ------- 0 1.0 6.0 2 8
+ 1.01875 0 3 cbr 210 ------- 0 0.0 5.0 5 9
- 1.01875 0 3 cbr 210 ------- 0 0.0 5.0 5 9
r 1.01905 3 4 cbr 210 ------- 0 0.0 5.0 3 5
+ 1.01905 4 5 cbr 210 ------- 0 0.0 5.0 3 5
- 1.01905 4 5 cbr 210 ------- 0 0.0 5.0 3 5
- 1.021238 1 3 tcp 1040 ------- 0 1.0 6.0 2 8
r 1.02131 0 3 cbr 210 ------- 0 0.0 5.0 5 9
+ 1.02131 3 4 cbr 210 ------- 0 0.0 5.0 5 9
- 1.02131 3 4 cbr 210 ------- 0 0.0 5.0 5 9
r 1.02147 4 5 cbr 210 ------- 0 0.0 5.0 3 5
+ 1.0225 0 3 cbr 210 ------- 0 0.0 5.0 6 10
- 1.0225 0 3 cbr 210 ------- 0 0.0 5.0 6 10
r 1.0228 3 4 cbr 210 ------- 0 0.0 5.0 4 6
+ 1.0228 4 5 cbr 210 ------- 0 0.0 5.0 4 6
- 1.0228 4 5 cbr 210 ------- 0 0.0 5.0 4 6
r 1.023238 1 3 tcp 1040 ------- 0 1.0 6.0 1 7
+ 1.023238 3 4 tcp 1040 ------- 0 1.0 6.0 1 7
- 1.023238 3 4 tcp 1040 ------- 0 1.0 6.0 1 7
r 1.02506 0 3 cbr 210 ------- 0 0.0 5.0 6 10
+ 1.02506 3 4 cbr 210 ------- 0 0.0 5.0 6 10
- 1.02506 3 4 cbr 210 ------- 0 0.0 5.0 6 10
r 1.02522 4 5 cbr 210 ------- 0 0.0 5.0 4 6
r 1.026011 1 3 tcp 1040 ------- 0 1.0 6.0 2 8
+ 1.026011 3 4 tcp 1040 ------- 0 1.0 6.0 2 8
- 1.026011 3 4 tcp 1040 ------- 0 1.0 6.0 2 8
+ 1.02625 0 3 cbr 210 ------- 0 0.0 5.0 7 11
- 1.02625 0 3 cbr 210 ------- 0 0.0 5.0 7 11
r 1.02655 3 4 cbr 210 ------- 0 0.0 5.0 5 9
+ 1.02655 4 5 cbr 210 ------- 0 0.0 5.0 5 9
- 1.02655 4 5 cbr 210 ------- 0 0.0 5.0 5 9
r 1.02881 0 3 cbr 210 ------- 0 0.0 5.0 7 11
+ 1.02881 3 4 cbr 210 ------- 0 0.0 5.0 7 11
- 1.02881 3 4 cbr 210 ------- 0 0.0 5.0 7 11
r 1.02897 4 5 cbr 210 ------- 0 0.0 5.0 5 9
r 1.029427 3 4 tcp 1040 ------- 0 1.0 6.0 1 7
+ 1.029427 4 6 tcp 1040 ------- 0 1.0 6.0 1 7
- 1.029427 4 6 tcp 1040 ------- 0 1.0 6.0 1 7
+ 1.03 0 3 cbr 210 ------- 0 0.0 5.0 8 12
- 1.03 0 3 cbr 210 ------- 0 0.0 5.0 8 12
r 1.0303 3 4 cbr 210 ------- 0 0.0 5.0 6 10
+ 1.0303 4 5 cbr 210 ------- 0 0.0 5.0 6 10
- 1.0303 4 5 cbr 210 ------- 0 0.0 5.0 6 10
r 1.0322 3 4 tcp 1040 ------- 0 1.0 6.0 2 8
+ 1.0322 4 6 tcp 1040 ------- 0 1.0 6.0 2 8
- 1.0322 4 6 tcp 1040 ------- 0 1.0 6.0 2 8
r 1.03256 0 3 cbr 210 ------- 0 0.0 5.0 8 12
+ 1.03256 3 4 cbr 210 ------- 0 0.0 5.0 8 12
- 1.03256 3 4 cbr 210 ------- 0 0.0 5.0 8 12
r 1.03272 4 5 cbr 210 ------- 0 0.0 5.0 6 10
r 1.033507 4 6 tcp 1040 ------- 0 1.0 6.0 1 7
+ 1.033507 6 4 ack 40 ------- 0 6.0 1.0 1 13
- 1.033507 6 4 ack 40 ------- 0 6.0 1.0 1 13
+ 1.03375 0 3 cbr 210 ------- 0 0.0 5.0 9 14
- 1.03375 0 3 cbr 210 ------- 0 0.0 5.0 9 14
r 1.03405 3 4 cbr 210 ------- 0 0.0 5.0 7 11
+ 1.03405 4 5 cbr 210 ------- 0 0.0 5.0 7 11
- 1.03405 4 5 cbr 210 ------- 0 0.0 5.0 7 11
r 1.035587 6 4 ack 40 ------- 0 6.0 1.0 1 13
+ 1.035587 4 3 ack 40 ------- 0 6.0 1.0 1 13
- 1.035587 4 3 ack 40 ------- 0 6.0 1.0 1 13
r 1.03628 4 6 tcp 1040 ------- 0 1.0 6.0 2 8
+ 1.03628 6 4 ack 40 ------- 0 6.0 1.0 2 15
- 1.03628 6 4 ack 40 ------- 0 6.0 1.0 2 15
r 1.03631 0 3 cbr 210 ------- 0 0.0 5.0 9 14
+ 1.03631 3 4 cbr 210 ------- 0 0.0 5.0 9 14
- 1.03631 3 4 cbr 210 ------- 0 0.0 5.0 9 14
r 1.03647 4 5 cbr 210 ------- 0 0.0 5.0 7 11
+ 1.0375 0 3 cbr 210 ------- 0 0.0 5.0 10 16
- 1.0375 0 3 cbr 210 ------- 0 0.0 5.0 10 16
r 1.0378 3 4 cbr 210 ------- 0 0.0 5.0 8 12
+ 1.0378 4 5 cbr 210 ------- 0 0.0 5.0 8 12
- 1.0378 4 5 cbr 210 ------- 0 0.0 5.0 8 12
r 1.03836 6 4 ack 40 ------- 0 6.0 1.0 2 15
+ 1.03836 4 3 ack 40 ------- 0 6.0 1.0 2 15
- 1.03836 4 3 ack 40 ------- 0 6.0 1.0 2 15
r 1.04006 0 3 cbr 210 ------- 0 0.0 5.0 10 16
+ 1.04006 3 4 cbr 210 ------- 0 0.0 5.0 10 16
- 1.04006 3 4 cbr 210 ------- 0 0.0 5.0 10 16
r 1.04022 4 5 cbr 210 ------- 0 0.0 5.0 8 12
r 1.040632 4 3 ack 40 ------- 0 6.0 1.0 1 13
+ 1.040632 3 1 ack 40 ------- 0 6.0 1.0 1 13
- 1.040632 3 1 ack 40 ------- 0 6.0 1.0 1 13
+ 1.04125 0 3 cbr 210 ------- 0 0.0 5.0 11 17
- 1.04125 0 3 cbr 210 ------- 0 0.0 5.0 11 17
r 1.04155 3 4 cbr 210 ------- 0 0.0 5.0 9 14
+ 1.04155 4 5 cbr 210 ------- 0 0.0 5.0 9 14
- 1.04155 4 5 cbr 210 ------- 0 0.0 5.0 9 14
r 1.042739 3 1 ack 40 ------- 0 6.0 1.0 1 13
+ 1.042739 1 3 tcp 1040 ------- 0 1.0 6.0 3 18
- 1.042739 1 3 tcp 1040 ------- 0 1.0 6.0 3 18
+ 1.042739 1 3 tcp 1040 ------- 0 1.0 6.0 4 19
r 1.043406 4 3 ack 40 ------- 0 6.0 1.0 2 15
+ 1.043406 3 1 ack 40 ------- 0 6.0 1.0 2 15
- 1.043406 3 1 ack 40 ------- 0 6.0 1.0 2 15
r 1.04381 0 3 cbr 210 ------- 0 0.0 5.0 11 17
+ 1.04381 3 4 cbr 210 ------- 0 0.0 5.0 11 17
- 1.04381 3 4 cbr 210 ------- 0 0.0 5.0 11 17
r 1.04397 4 5 cbr 210 ------- 0 0.0 5.0 9 14
+ 1.045 0 3 cbr 210 ------- 0 0.0 5.0 12 20
- 1.045 0 3 cbr 210 ------- 0 0.0 5.0 12 20
r 1.0453 3 4 cbr 210 ------- 0 0.0 5.0 10 16
+ 1.0453 4 5 cbr 210 ------- 0 0.0 5.0 10 16
- 1.0453 4 5 cbr 210 ------- 0 0.0 5.0 10 16
- 1.045512 1 3 tcp 1040 ------- 0 1.0 6.0 4 19
r 1.045512 3 1 ack 40 ------- 0 6.0 1.0 2 15
+ 1.045512 1 3 tcp 1040 ------- 0 1.0 6.0 5 21
+ 1.045512 1 3 tcp 1040 ------- 0 1.0 6.0 6 22
r 1.047512 1 3 tcp 1040 ------- 0 1.0 6.0 3 18
+ 1.047512 3 4 tcp 1040 ------- 0 1.0 6.0 3 18
- 1.047512 3 4 tcp 1040 ------- 0 1.0 6.0 3 18
r 1.04756 0 3 cbr 210 ------- 0 0.0 5.0 12 20
+ 1.04756 3 4 cbr 210 ------- 0 0.0 5.0 12 20
r 1.04772 4 5 cbr 210 ------- 0 0.0 5.0 10 16
- 1.048286 1 3 tcp 1040 ------- 0 1.0 6.0 5 21
- 1.048701 3 4 cbr 210 ------- 0 0.0 5.0 12 20
+ 1.04875 0 3 cbr 210 ------- 0 0.0 5.0 13 23
- 1.04875 0 3 cbr 210 ------- 0 0.0 5.0 13 23
r 1.04905 3 4 cbr 210 ------- 0 0.0 5.0 11 17
+ 1.04905 4 5 cbr 210 ------- 0 0.0 5.0 11 17
- 1.04905 4 5 cbr 210 ------- 0 0.0 5.0 11 17
r 1.050286 1 3 tcp 1040 ------- 0 1.0 6.0 4 19
+ 1.050286 3 4 tcp 1040 ------- 0 1.0 6.0 4 19
- 1.050286 3 4 tcp 1040 ------- 0 1.0 6.0 4 19
- 1.051059 1 3 tcp 1040 ------- 0 1.0 6.0 6 22
r 1.05131 0 3 cbr 210 ------- 0 0.0 5.0 13 23
+ 1.05131 3 4 cbr 210 ------- 0 0.0 5.0 13 23
r 1.05147 4 5 cbr 210 ------- 0 0.0 5.0 11 17
- 1.051474 3 4 cbr 210 ------- 0 0.0 5.0 13 23
+ 1.0525 0 3 cbr 210 ------- 0 0.0 5.0 14 24
- 1.0525 0 3 cbr 210 ------- 0 0.0 5.0 14 24
r 1.053059 1 3 tcp 1040 ------- 0 1.0 6.0 5 21
+ 1.053059 3 4 tcp 1040 ------- 0 1.0 6.0 5 21
- 1.053059 3 4 tcp 1040 ------- 0 1.0 6.0 5 21
r 1.053701 3 4 tcp 1040 ------- 0 1.0 6.0 3 18
+ 1.053701 4 6 tcp 1040 ------- 0 1.0 6.0 3 18
- 1.053701 4 6 tcp 1040 ------- 0 1.0 6.0 3 18
r 1.053941 3 4 cbr 210 ------- 0 0.0 5.0 12 20
+ 1.053941 4 5 cbr 210 ------- 0 0.0 5.0 12 20
- 1.053941 4 5 cbr 210 ------- 0 0.0 5.0 12 20
r 1.05506 0 3 cbr 210 ------- 0 0.0 5.0 14 24
+ 1.05506 3 4 cbr 210 ------- 0 0.0 5.0 14 24
- 1.05506 3 4 cbr 210 ------- 0 0.0 5.0 14 24
r 1.055832 1 3 tcp 1040 ------- 0 1.0 6.0 6 22
+ 1.055832 3 4 tcp 1040 ------- 0 1.0 6.0 6 22
- 1.055832 3 4 tcp 1040 ------- 0 1.0 6.0 6 22
+ 1.05625 0 3 cbr 210 ------- 0 0.0 5.0 15 25
- 1.05625 0 3 cbr 210 ------- 0 0.0 5.0 15 25
r 1.056361 4 5 cbr 210 ------- 0 0.0 5.0 12 20
r 1.056474 3 4 tcp 1040 ------- 0 1.0 6.0 4 19
+ 1.056474 4 6 tcp 1040 ------- 0 1.0 6.0 4 19
- 1.056474 4 6 tcp 1040 ------- 0 1.0 6.0 4 19
r 1.056714 3 4 cbr 210 ------- 0 0.0 5.0 13 23
+ 1.056714 4 5 cbr 210 ------- 0 0.0 5.0 13 23
- 1.056714 4 5 cbr 210 ------- 0 0.0 5.0 13 23
r 1.057781 4 6 tcp 1040 ------- 0 1.0 6.0 3 18
+ 1.057781 6 4 ack 40 ------- 0 6.0 1.0 3 26
- 1.057781 6 4 ack 40 ------- 0 6.0 1.0 3 26
r 1.05881 0 3 cbr 210 ------- 0 0.0 5.0 15 25
+ 1.05881 3 4 cbr 210 ------- 0 0.0 5.0 15 25
- 1.05881 3 4 cbr 210 ------- 0 0.0 5.0 15 25
r 1.059134 4 5 cbr 210 ------- 0 0.0 5.0 13 23
r 1.059248 3 4 tcp 1040 ------- 0 1.0 6.0 5 21
+ 1.059248 4 6 tcp 1040 ------- 0 1.0 6.0 5 21
- 1.059248 4 6 tcp 1040 ------- 0 1.0 6.0 5 21
r 1.059861 6 4 ack 40 ------- 0 6.0 1.0 3 26
+ 1.059861 4 3 ack 40 ------- 0 6.0 1.0 3 26
- 1.059861 4 3 ack 40 ------- 0 6.0 1.0 3 26
+ 1.06 0 3 cbr 210 ------- 0 0.0 5.0 16 27
- 1.06 0 3 cbr 210 ------- 0 0.0 5.0 16 27
r 1.0603 3 4 cbr 210 ------- 0 0.0 5.0 14 24
+ 1.0603 4 5 cbr 210 ------- 0 0.0 5.0 14 24
- 1.0603 4 5 cbr 210 ------- 0 0.0 5.0 14 24
r 1.060554 4 6 tcp 1040 ------- 0 1.0 6.0 4 19
+ 1.060554 6 4 ack 40 ------- 0 6.0 1.0 4 28
- 1.060554 6 4 ack 40 ------- 0 6.0 1.0 4 28
r 1.062021 3 4 tcp 1040 ------- 0 1.0 6.0 6 22
+ 1.062021 4 6 tcp 1040 ------- 0 1.0 6.0 6 22
- 1.062021 4 6 tcp 1040 ------- 0 1.0 6.0 6 22
r 1.06256 0 3 cbr 210 ------- 0 0.0 5.0 16 27
+ 1.06256 3 4 cbr 210 ------- 0 0.0 5.0 16 27
- 1.06256 3 4 cbr 210 ------- 0 0.0 5.0 16 27
r 1.062634 6 4 ack 40 ------- 0 6.0 1.0 4 28
+ 1.062634 4 3 ack 40 ------- 0 6.0 1.0 4 28
- 1.062634 4 3 ack 40 ------- 0 6.0 1.0 4 28
r 1.06272 4 5 cbr 210 ------- 0 0.0 5.0 14 24
r 1.063328 4 6 tcp 1040 ------- 0 1.0 6.0 5 21
+ 1.063328 6 4 ack 40 ------- 0 6.0 1.0 5 29
- 1.063328 6 4 ack 40 ------- 0 6.0 1.0 5 29
+ 1.06375 0 3 cbr 210 ------- 0 0.0 5.0 17 30
- 1.06375 0 3 cbr 210 ------- 0 0.0 5.0 17 30
r 1.06405 3 4 cbr 210 ------- 0 0.0 5.0 15 25
+ 1.06405 4 5 cbr 210 ------- 0 0.0 5.0 15 25
- 1.06405 4 5 cbr 210 ------- 0 0.0 5.0 15 25
r 1.064907 4 3 ack 40 ------- 0 6.0 1.0 3 26
+ 1.064907 3 1 ack 40 ------- 0 6.0 1.0 3 26
- 1.064907 3 1 ack 40 ------- 0 6.0 1.0 3 26
r 1.065408 6 4 ack 40 ------- 0 6.0 1.0 5 29
+ 1.065408 4 3 ack 40 ------- 0 6.0 1.0 5 29
- 1.065408 4 3 ack 40 ------- 0 6.0 1.0 5 29
r 1.066101 4 6 tcp 1040 ------- 0 1.0 6.0 6 22
+ 1.066101 6 4 ack 40 ------- 0 6.0 1.0 6 31
- 1.066101 6 4 ack 40 ------- 0 6.0 1.0 6 31
r 1.06631 0 3 cbr 210 ------- 0 0.0 5.0 17 30
+ 1.06631 3 4 cbr 210 ------- 0 0.0 5.0 17 30
- 1.06631 3 4 cbr 210 ------- 0 0.0 5.0 17 30
r 1.06647 4 5 cbr 210 ------- 0 0.0 5.0 15 25
r 1.067013 3 1 ack 40 ------- 0 6.0 1.0 3 26
+ 1.067013 1 3 tcp 1040 ------- 0 1.0 6.0 7 32
- 1.067013 1 3 tcp 1040 ------- 0 1.0 6.0 7 32
+ 1.067013 1 3 tcp 1040 ------- 0 1.0 6.0 8 33
+ 1.0675 0 3 cbr 210 ------- 0 0.0 5.0 18 34
- 1.0675 0 3 cbr 210 ------- 0 0.0 5.0 18 34
r 1.06768 4 3 ack 40 ------- 0 6.0 1.0 4 28
+ 1.06768 3 1 ack 40 ------- 0 6.0 1.0 4 28
- 1.06768 3 1 ack 40 ------- 0 6.0 1.0 4 28
r 1.0678 3 4 cbr 210 ------- 0 0.0 5.0 16 27
+ 1.0678 4 5 cbr 210 ------- 0 0.0 5.0 16 27
- 1.0678 4 5 cbr 210 ------- 0 0.0 5.0 16 27
r 1.068181 6 4 ack 40 ------- 0 6.0 1.0 6 31
+ 1.068181 4 3 ack 40 ------- 0 6.0 1.0 6 31
- 1.068181 4 3 ack 40 ------- 0 6.0 1.0 6 31
- 1.069787 1 3 tcp 1040 ------- 0 1.0 6.0 8 33
r 1.069787 3 1 ack 40 ------- 0 6.0 1.0 4 28
+ 1.069787 1 3 tcp 1040 ------- 0 1.0 6.0 9 35
+ 1.069787 1 3 tcp 1040 ------- 0 1.0 6.0 10 36
r 1.07006 0 3 cbr 210 ------- 0 0.0 5.0 18 34
+ 1.07006 3 4 cbr 210 ------- 0 0.0 5.0 18 34
- 1.07006 3 4 cbr 210 ------- 0 0.0 5.0 18 34
r 1.07022 4 5 cbr 210 ------- 0 0.0 5.0 16 27
r 1.070453 4 3 ack 40 ------- 0 6.0 1.0 5 29
+ 1.070453 3 1 ack 40 ------- 0 6.0 1.0 5 29
- 1.070453 3 1 ack 40 ------- 0 6.0 1.0 5 29
+ 1.07125 0 3 cbr 210 ------- 0 0.0 5.0 19 37
- 1.07125 0 3 cbr 210 ------- 0 0.0 5.0 19 37
r 1.07155 3 4 cbr 210 ------- 0 0.0 5.0 17 30
+ 1.07155 4 5 cbr 210 ------- 0 0.0 5.0 17 30
- 1.07155 4 5 cbr 210 ------- 0 0.0 5.0 17 30
r 1.071787 1 3 tcp 1040 ------- 0 1.0 6.0 7 32
+ 1.071787 3 4 tcp 1040 ------- 0 1.0 6.0 7 32
- 1.071787 3 4 tcp 1040 ------- 0 1.0 6.0 7 32
- 1.07256 1 3 tcp 1040 ------- 0 1.0 6.0 9 35
r 1.07256 3 1 ack 40 ------- 0 6.0 1.0 5 29
+ 1.07256 1 3 tcp 1040 ------- 0 1.0 6.0 11 38
+ 1.07256 1 3 tcp 1040 ------- 0 1.0 6.0 12 39
r 1.073227 4 3 ack 40 ------- 0 6.0 1.0 6 31
+ 1.073227 3 1 ack 40 ------- 0 6.0 1.0 6 31
- 1.073227 3 1 ack 40 ------- 0 6.0 1.0 6 31
r 1.07381 0 3 cbr 210 ------- 0 0.0 5.0 19 37
+ 1.07381 3 4 cbr 210 ------- 0 0.0 5.0 19 37
- 1.07381 3 4 cbr 210 ------- 0 0.0 5.0 19 37
r 1.07397 4 5 cbr 210 ------- 0 0.0 5.0 17 30
r 1.07456 1 3 tcp 1040 ------- 0 1.0 6.0 8 33
+ 1.07456 3 4 tcp 1040 ------- 0 1.0 6.0 8 33
- 1.07456 3 4 tcp 1040 ------- 0 1.0 6.0 8 33
+ 1.075 0 3 cbr 210 ------- 0 0.0 5.0 20 40
- 1.075 0 3 cbr 210 ------- 0 0.0 5.0 20 40
r 1.0753 3 4 cbr 210 ------- 0 0.0 5.0 18 34
+ 1.0753 4 5 cbr 210 ------- 0 0.0 5.0 18 34
- 1.0753 4 5 cbr 210 ------- 0 0.0 5.0 18 34
- 1.075333 1 3 tcp 1040 ------- 0 1.0 6.0 10 36
r 1.075333 3 1 ack 40 ------- 0 6.0 1.0 6 31
+ 1.075333 1 3 tcp 1040 ------- 0 1.0 6.0 13 41
+ 1.075333 1 3 tcp 1040 ------- 0 1.0 6.0 14 42
r 1.077333 1 3 tcp 1040 ------- 0 1.0 6.0 9 35
+ 1.077333 3 4 tcp 1040 ------- 0 1.0 6.0 9 35
- 1.077333 3 4 tcp 1040 ------- 0 1.0 6.0 9 35
r 1.07756 0 3 cbr 210 ------- 0 0.0 5.0 20 40
+ 1.07756 3 4 cbr 210 ------- 0 0.0 5.0 20 40
r 1.07772 4 5 cbr 210 ------- 0 0.0 5.0 18 34
r 1.077975 3 4 tcp 1040 ------- 0 1.0 6.0 7 32
+ 1.077975 4 6 tcp 1040 ------- 0 1.0 6.0 7 32
- 1.077975 4 6 tcp 1040 ------- 0 1.0 6.0 7 32
- 1.078107 1 3 tcp 1040 ------- 0 1.0 6.0 11 38
- 1.078522 3 4 cbr 210 ------- 0 0.0 5.0 20 40
+ 1.07875 0 3 cbr 210 ------- 0 0.0 5.0 21 43
- 1.07875 0 3 cbr 210 ------- 0 0.0 5.0 21 43
r 1.07905 3 4 cbr 210 ------- 0 0.0 5.0 19 37
+ 1.07905 4 5 cbr 210 ------- 0 0.0 5.0 19 37
- 1.07905 4 5 cbr 210 ------- 0 0.0 5.0 19 37
r 1.080107 1 3 tcp 1040 ------- 0 1.0 6.0 10 36
+ 1.080107 3 4 tcp 1040 ------- 0 1.0 6.0 10 36
- 1.080107 3 4 tcp 1040 ------- 0 1.0 6.0 10 36
r 1.080749 3 4 tcp 1040 ------- 0 1.0 6.0 8 33
+ 1.080749 4 6 tcp 1040 ------- 0 1.0 6.0 8 33
- 1.080749 4 6 tcp 1040 ------- 0 1.0 6.0 8 33
- 1.08088 1 3 tcp 1040 ------- 0 1.0 6.0 12 39
r 1.08131 0 3 cbr 210 ------- 0 0.0 5.0 21 43
+ 1.08131 3 4 cbr 210 ------- 0 0.0 5.0 21 43
- 1.08131 3 4 cbr 210 ------- 0 0.0 5.0 21 43
r 1.08147 4 5 cbr 210 ------- 0 0.0 5.0 19 37
r 1.082055 4 6 tcp 1040 ------- 0 1.0 6.0 7 32
+ 1.082055 6 4 ack 40 ------- 0 6.0 1.0 7 44
- 1.082055 6 4 ack 40 ------- 0 6.0 1.0 7 44
+ 1.0825 0 3 cbr 210 ------- 0 0.0 5.0 22 45
- 1.0825 0 3 cbr 210 ------- 0 0.0 5.0 22 45
r 1.08288 1 3 tcp 1040 ------- 0 1.0 6.0 11 38
+ 1.08288 3 4 tcp 1040 ------- 0 1.0 6.0 11 38
- 1.08288 3 4 tcp 1040 ------- 0 1.0 6.0 11 38
r 1.083522 3 4 tcp 1040 ------- 0 1.0 6.0 9 35
+ 1.083522 4 6 tcp 1040 ------- 0 1.0 6.0 9 35
- 1.083522 4 6 tcp 1040 ------- 0 1.0 6.0 9 35
- 1.083653 1 3 tcp 1040 ------- 0 1.0 6.0 13 41
r 1.083762 3 4 cbr 210 ------- 0 0.0 5.0 20 40
+ 1.083762 4 5 cbr 210 ------- 0 0.0 5.0 20 40
- 1.083762 4 5 cbr 210 ------- 0 0.0 5.0 20 40
r 1.084135 6 4 ack 40 ------- 0 6.0 1.0 7 44
+ 1.084135 4 3 ack 40 ------- 0 6.0 1.0 7 44
- 1.084135 4 3 ack 40 ------- 0 6.0 1.0 7 44
r 1.084829 4 6 tcp 1040 ------- 0 1.0 6.0 8 33
+ 1.084829 6 4 ack 40 ------- 0 6.0 1.0 8 46
- 1.084829 6 4 ack 40 ------- 0 6.0 1.0 8 46
r 1.08506 0 3 cbr 210 ------- 0 0.0 5.0 22 45
+ 1.08506 3 4 cbr 210 ------- 0 0.0 5.0 22 45
- 1.08506 3 4 cbr 210 ------- 0 0.0 5.0 22 45
r 1.085653 1 3 tcp 1040 ------- 0 1.0 6.0 12 39
+ 1.085653 3 4 tcp 1040 ------- 0 1.0 6.0 12 39
- 1.085653 3 4 tcp 1040 ------- 0 1.0 6.0 12 39
r 1.086182 4 5 cbr 210 ------- 0 0.0 5.0 20 40
+ 1.08625 0 3 cbr 210 ------- 0 0.0 5.0 23 47
- 1.08625 0 3 cbr 210 ------- 0 0.0 5.0 23 47
r 1.086295 3 4 tcp 1040 ------- 0 1.0 6.0 10 36
+ 1.086295 4 6 tcp 1040 ------- 0 1.0 6.0 10 36
- 1.086295 4 6 tcp 1040 ------- 0 1.0 6.0 10 36
- 1.086427 1 3 tcp 1040 ------- 0 1.0 6.0 14 42
r 1.08655 3 4 cbr 210 ------- 0 0.0 5.0 21 43
+ 1.08655 4 5 cbr 210 ------- 0 0.0 5.0 21 43
- 1.08655 4 5 cbr 210 ------- 0 0.0 5.0 21 43
r 1.086909 6 4 ack 40 ------- 0 6.0 1.0 8 46
+ 1.086909 4 3 ack 40 ------- 0 6.0 1.0 8 46
- 1.086909 4 3 ack 40 ------- 0 6.0 1.0 8 46
r 1.087602 4 6 tcp 1040 ------- 0 1.0 6.0 9 35
+ 1.087602 6 4 ack 40 ------- 0 6.0 1.0 9 48
- 1.087602 6 4 ack 40 ------- 0 6.0 1.0 9 48
r 1.088427 1 3 tcp 1040 ------- 0 1.0 6.0 13 41
+ 1.088427 3 4 tcp 1040 ------- 0 1.0 6.0 13 41
- 1.088427 3 4 tcp 1040 ------- 0 1.0 6.0 13 41
r 1.08881 0 3 cbr 210 ------- 0 0.0 5.0 23 47
+ 1.08881 3 4 cbr 210 ------- 0 0.0 5.0 23 47
r 1.08897 4 5 cbr 210 ------- 0 0.0 5.0 21 43
r 1.089069 3 4 tcp 1040 ------- 0 1.0 6.0 11 38
+ 1.089069 4 6 tcp 1040 ------- 0 1.0 6.0 11 38
- 1.089069 4 6 tcp 1040 ------- 0 1.0 6.0 11 38
r 1.089181 4 3 ack 40 ------- 0 6.0 1.0 7 44
+ 1.089181 3 1 ack 40 ------- 0 6.0 1.0 7 44
- 1.089181 3 1 ack 40 ------- 0 6.0 1.0 7 44
- 1.089615 3 4 cbr 210 ------- 0 0.0 5.0 23 47
r 1.089682 6 4 ack 40 ------- 0 6.0 1.0 9 48
+ 1.089682 4 3 ack 40 ------- 0 6.0 1.0 9 48
- 1.089682 4 3 ack 40 ------- 0 6.0 1.0 9 48
+ 1.09 0 3 cbr 210 ------- 0 0.0 5.0 24 49
- 1.09 0 3 cbr 210 ------- 0 0.0 5.0 24 49
r 1.0903 3 4 cbr 210 ------- 0 0.0 5.0 22 45
+ 1.0903 4 5 cbr 210 ------- 0 0.0 5.0 22 45
- 1.0903 4 5 cbr 210 ------- 0 0.0 5.0 22 45
r 1.090375 4 6 tcp 1040 ------- 0 1.0 6.0 10 36
+ 1.090375 6 4 ack 40 ------- 0 6.0 1.0 10 50
- 1.090375 6 4 ack 40 ------- 0 6.0 1.0 10 50
r 1.0912 1 3 tcp 1040 ------- 0 1.0 6.0 14 42
+ 1.0912 3 4 tcp 1040 ------- 0 1.0 6.0 14 42
- 1.0912 3 4 tcp 1040 ------- 0 1.0 6.0 14 42
r 1.091288 3 1 ack 40 ------- 0 6.0 1.0 7 44
+ 1.091288 1 3 tcp 1040 ------- 0 1.0 6.0 15 51
- 1.091288 1 3 tcp 1040 ------- 0 1.0 6.0 15 51
+ 1.091288 1 3 tcp 1040 ------- 0 1.0 6.0 16 52
r 1.091842 3 4 tcp 1040 ------- 0 1.0 6.0 12 39
+ 1.091842 4 6 tcp 1040 ------- 0 1.0 6.0 12 39
- 1.091842 4 6 tcp 1040 ------- 0 1.0 6.0 12 39
r 1.091954 4 3 ack 40 ------- 0 6.0 1.0 8 46
+ 1.091954 3 1 ack 40 ------- 0 6.0 1.0 8 46
- 1.091954 3 1 ack 40 ------- 0 6.0 1.0 8 46
r 1.092455 6 4 ack 40 ------- 0 6.0 1.0 10 50
+ 1.092455 4 3 ack 40 ------- 0 6.0 1.0 10 50
- 1.092455 4 3 ack 40 ------- 0 6.0 1.0 10 50
r 1.09256 0 3 cbr 210 ------- 0 0.0 5.0 24 49
+ 1.09256 3 4 cbr 210 ------- 0 0.0 5.0 24 49
- 1.09256 3 4 cbr 210 ------- 0 0.0 5.0 24 49
r 1.09272 4 5 cbr 210 ------- 0 0.0 5.0 22 45
r 1.093149 4 6 tcp 1040 ------- 0 1.0 6.0 11 38
+ 1.093149 6 4 ack 40 ------- 0 6.0 1.0 11 53
- 1.093149 6 4 ack 40 ------- 0 6.0 1.0 11 53
+ 1.09375 0 3 cbr 210 ------- 0 0.0 5.0 25 54
- 1.09375 0 3 cbr 210 ------- 0 0.0 5.0 25 54
- 1.094061 1 3 tcp 1040 ------- 0 1.0 6.0 16 52
r 1.094061 3 1 ack 40 ------- 0 6.0 1.0 8 46
+ 1.094061 1 3 tcp 1040 ------- 0 1.0 6.0 17 55
+ 1.094061 1 3 tcp 1040 ------- 0 1.0 6.0 18 56
r 1.094615 3 4 tcp 1040 ------- 0 1.0 6.0 13 41
+ 1.094615 4 6 tcp 1040 ------- 0 1.0 6.0 13 41
- 1.094615 4 6 tcp 1040 ------- 0 1.0 6.0 13 41
r 1.094728 4 3 ack 40 ------- 0 6.0 1.0 9 48
+ 1.094728 3 1 ack 40 ------- 0 6.0 1.0 9 48
- 1.094728 3 1 ack 40 ------- 0 6.0 1.0 9 48
r 1.094855 3 4 cbr 210 ------- 0 0.0 5.0 23 47
+ 1.094855 4 5 cbr 210 ------- 0 0.0 5.0 23 47
- 1.094855 4 5 cbr 210 ------- 0 0.0 5.0 23 47
r 1.095229 6 4 ack 40 ------- 0 6.0 1.0 11 53
+ 1.095229 4 3 ack 40 ------- 0 6.0 1.0 11 53
- 1.095229 4 3 ack 40 ------- 0 6.0 1.0 11 53
r 1.095922 4 6 tcp 1040 ------- 0 1.0 6.0 12 39
+ 1.095922 6 4 ack 40 ------- 0 6.0 1.0 12 57
- 1.095922 6 4 ack 40 ------- 0 6.0 1.0 12 57
r 1.096061 1 3 tcp 1040 ------- 0 1.0 6.0 15 51
+ 1.096061 3 4 tcp 1040 ------- 0 1.0 6.0 15 51
- 1.096061 3 4 tcp 1040 ------- 0 1.0 6.0 15 51
r 1.09631 0 3 cbr 210 ------- 0 0.0 5.0 25 54
+ 1.09631 3 4 cbr 210 ------- 0 0.0 5.0 25 54
- 1.096834 1 3 tcp 1040 ------- 0 1.0 6.0 17 55
r 1.096834 3 1 ack 40 ------- 0 6.0 1.0 9 48
+ 1.096834 1 3 tcp 1040 ------- 0 1.0 6.0 19 58
+ 1.096834 1 3 tcp 1040 ------- 0 1.0 6.0 20 59
- 1.09725 3 4 cbr 210 ------- 0 0.0 5.0 25 54
r 1.097275 4 5 cbr 210 ------- 0 0.0 5.0 23 47
r 1.097389 3 4 tcp 1040 ------- 0 1.0 6.0 14 42
+ 1.097389 4 6 tcp 1040 ------- 0 1.0 6.0 14 42
- 1.097389 4 6 tcp 1040 ------- 0 1.0 6.0 14 42
+ 1.0975 0 3 cbr 210 ------- 0 0.0 5.0 26 60
- 1.0975 0 3 cbr 210 ------- 0 0.0 5.0 26 60
r 1.097501 4 3 ack 40 ------- 0 6.0 1.0 10 50
+ 1.097501 3 1 ack 40 ------- 0 6.0 1.0 10 50
- 1.097501 3 1 ack 40 ------- 0 6.0 1.0 10 50
r 1.0978 3 4 cbr 210 ------- 0 0.0 5.0 24 49
+ 1.0978 4 5 cbr 210 ------- 0 0.0 5.0 24 49
- 1.0978 4 5 cbr 210 ------- 0 0.0 5.0 24 49
r 1.098002 6 4 ack 40 ------- 0 6.0 1.0 12 57
+ 1.098002 4 3 ack 40 ------- 0 6.0 1.0 12 57
- 1.098002 4 3 ack 40 ------- 0 6.0 1.0 12 57
r 1.098695 4 6 tcp 1040 ------- 0 1.0 6.0 13 41
+ 1.098695 6 4 ack 40 ------- 0 6.0 1.0 13 61
- 1.098695 6 4 ack 40 ------- 0 6.0 1.0 13 61
r 1.098834 1 3 tcp 1040 ------- 0 1.0 6.0 16 52
+ 1.098834 3 4 tcp 1040 ------- 0 1.0 6.0 16 52
- 1.098834 3 4 tcp 1040 ------- 0 1.0 6.0 16 52
- 1.099608 1 3 tcp 1040 ------- 0 1.0 6.0 18 56
r 1.099608 3 1 ack 40 ------- 0 6.0 1.0 10 50
+ 1.099608 1 3 tcp 1040 ------- 0 1.0 6.0 21 62
+ 1.099608 1 3 tcp 1040 ------- 0 1.0 6.0 22 63
r 1.10006 0 3 cbr 210 ------- 0 0.0 5.0 26 60
+ 1.10006 3 4 cbr 210 ------- 0 0.0 5.0 26 60
- 1.10006 3 4 cbr 210 ------- 0 0.0 5.0 26 60
r 1.10022 4 5 cbr 210 ------- 0 0.0 5.0 24 49
r 1.100274 4 3 ack 40 ------- 0 6.0 1.0 11 53
+ 1.100274 3 1 ack 40 ------- 0 6.0 1.0 11 53
- 1.100274 3 1 ack 40 ------- 0 6.0 1.0 11 53
r 1.100775 6 4 ack 40 ------- 0 6.0 1.0 13 61
+ 1.100775 4 3 ack 40 ------- 0 6.0 1.0 13 61
- 1.100775 4 3 ack 40 ------- 0 6.0 1.0 13 61
+ 1.10125 0 3 cbr 210 ------- 0 0.0 5.0 27 64
- 1.10125 0 3 cbr 210 ------- 0 0.0 5.0 27 64
r 1.101469 4 6 tcp 1040 ------- 0 1.0 6.0 14 42
+ 1.101469 6 4 ack 40 ------- 0 6.0 1.0 14 65
- 1.101469 6 4 ack 40 ------- 0 6.0 1.0 14 65
r 1.101608 1 3 tcp 1040 ------- 0 1.0 6.0 17 55
+ 1.101608 3 4 tcp 1040 ------- 0 1.0 6.0 17 55
- 1.101608 3 4 tcp 1040 ------- 0 1.0 6.0 17 55
r 1.10225 3 4 tcp 1040 ------- 0 1.0 6.0 15 51
+ 1.10225 4 6 tcp 1040 ------- 0 1.0 6.0 15 51
- 1.10225 4 6 tcp 1040 ------- 0 1.0 6.0 15 51
- 1.102381 1 3 tcp 1040 ------- 0 1.0 6.0 19 58
r 1.102381 3 1 ack 40 ------- 0 6.0 1.0 11 53
+ 1.102381 1 3 tcp 1040 ------- 0 1.0 6.0 23 66
+ 1.102381 1 3 tcp 1040 ------- 0 1.0 6.0 24 67
r 1.10249 3 4 cbr 210 ------- 0 0.0 5.0 25 54
+ 1.10249 4 5 cbr 210 ------- 0 0.0 5.0 25 54
- 1.10249 4 5 cbr 210 ------- 0 0.0 5.0 25 54
r 1.103048 4 3 ack 40 ------- 0 6.0 1.0 12 57
+ 1.103048 3 1 ack 40 ------- 0 6.0 1.0 12 57
- 1.103048 3 1 ack 40 ------- 0 6.0 1.0 12 57
r 1.103549 6 4 ack 40 ------- 0 6.0 1.0 14 65
+ 1.103549 4 3 ack 40 ------- 0 6.0 1.0 14 65
- 1.103549 4 3 ack 40 ------- 0 6.0 1.0 14 65
r 1.10381 0 3 cbr 210 ------- 0 0.0 5.0 27 64
+ 1.10381 3 4 cbr 210 ------- 0 0.0 5.0 27 64
- 1.10381 3 4 cbr 210 ------- 0 0.0 5.0 27 64
r 1.104381 1 3 tcp 1040 ------- 0 1.0 6.0 18 56
+ 1.104381 3 4 tcp 1040 ------- 0 1.0 6.0 18 56
- 1.104381 3 4 tcp 1040 ------- 0 1.0 6.0 18 56
r 1.10491 4 5 cbr 210 ------- 0 0.0 5.0 25 54
+ 1.105 0 3 cbr 210 ------- 0 0.0 5.0 28 68
- 1.105 0 3 cbr 210 ------- 0 0.0 5.0 28 68
r 1.105023 3 4 tcp 1040 ------- 0 1.0 6.0 16 52
+ 1.105023 4 6 tcp 1040 ------- 0 1.0 6.0 16 52
- 1.105023 4 6 tcp 1040 ------- 0 1.0 6.0 16 52
- 1.105154 1 3 tcp 1040 ------- 0 1.0 6.0 20 59
r 1.105154 3 1 ack 40 ------- 0 6.0 1.0 12 57
+ 1.105154 1 3 tcp 1040 ------- 0 1.0 6.0 25 69
+ 1.105154 1 3 tcp 1040 ------- 0 1.0 6.0 26 70
r 1.1053 3 4 cbr 210 ------- 0 0.0 5.0 26 60
+ 1.1053 4 5 cbr 210 ------- 0 0.0 5.0 26 60
- 1.1053 4 5 cbr 210 ------- 0 0.0 5.0 26 60
r 1.105821 4 3 ack 40 ------- 0 6.0 1.0 13 61
+ 1.105821 3 1 ack 40 ------- 0 6.0 1.0 13 61
- 1.105821 3 1 ack 40 ------- 0 6.0 1.0 13 61
r 1.10633 4 6 tcp 1040 ------- 0 1.0 6.0 15 51
+ 1.10633 6 4 ack 40 ------- 0 6.0 1.0 15 71
- 1.10633 6 4 ack 40 ------- 0 6.0 1.0 15 71
r 1.107154 1 3 tcp 1040 ------- 0 1.0 6.0 19 58
+ 1.107154 3 4 tcp 1040 ------- 0 1.0 6.0 19 58
- 1.107154 3 4 tcp 1040 ------- 0 1.0 6.0 19 58
r 1.10756 0 3 cbr 210 ------- 0 0.0 5.0 28 68
+ 1.10756 3 4 cbr 210 ------- 0 0.0 5.0 28 68
r 1.10772 4 5 cbr 210 ------- 0 0.0 5.0 26 60
r 1.107796 3 4 tcp 1040 ------- 0 1.0 6.0 17 55
+ 1.107796 4 6 tcp 1040 ------- 0 1.0 6.0 17 55
- 1.107796 4 6 tcp 1040 ------- 0 1.0 6.0 17 55
- 1.107928 1 3 tcp 1040 ------- 0 1.0 6.0 21 62
r 1.107928 3 1 ack 40 ------- 0 6.0 1.0 13 61
+ 1.107928 1 3 tcp 1040 ------- 0 1.0 6.0 27 72
+ 1.107928 1 3 tcp 1040 ------- 0 1.0 6.0 28 73
- 1.108343 3 4 cbr 210 ------- 0 0.0 5.0 28 68
r 1.10841 6 4 ack 40 ------- 0 6.0 1.0 15 71
+ 1.10841 4 3 ack 40 ------- 0 6.0 1.0 15 71
- 1.10841 4 3 ack 40 ------- 0 6.0 1.0 15 71
r 1.108594 4 3 ack 40 ------- 0 6.0 1.0 14 65
+ 1.108594 3 1 ack 40 ------- 0 6.0 1.0 14 65
- 1.108594 3 1 ack 40 ------- 0 6.0 1.0 14 65
+ 1.10875 0 3 cbr 210 ------- 0 0.0 5.0 29 74
- 1.10875 0 3 cbr 210 ------- 0 0.0 5.0 29 74
r 1.10905 3 4 cbr 210 ------- 0 0.0 5.0 27 64
+ 1.10905 4 5 cbr 210 ------- 0 0.0 5.0 27 64
- 1.10905 4 5 cbr 210 ------- 0 0.0 5.0 27 64
r 1.109103 4 6 tcp 1040 ------- 0 1.0 6.0 16 52
+ 1.109103 6 4 ack 40 ------- 0 6.0 1.0 16 75
- 1.109103 6 4 ack 40 ------- 0 6.0 1.0 16 75
r 1.109928 1 3 tcp 1040 ------- 0 1.0 6.0 20 59
+ 1.109928 3 4 tcp 1040 ------- 0 1.0 6.0 20 59
- 1.109928 3 4 tcp 1040 ------- 0 1.0 6.0 20 59
r 1.11057 3 4 tcp 1040 ------- 0 1.0 6.0 18 56
+ 1.11057 4 6 tcp 1040 ------- 0 1.0 6.0 18 56
- 1.11057 4 6 tcp 1040 ------- 0 1.0 6.0 18 56
- 1.110701 1 3 tcp 1040 ------- 0 1.0 6.0 22 63
r 1.110701 3 1 ack 40 ------- 0 6.0 1.0 14 65
+ 1.110701 1 3 tcp 1040 ------- 0 1.0 6.0 29 76
+ 1.110701 1 3 tcp 1040 ------- 0 1.0 6.0 30 77
r 1.111183 6 4 ack 40 ------- 0 6.0 1.0 16 75
+ 1.111183 4 3 ack 40 ------- 0 6.0 1.0 16 75
- 1.111183 4 3 ack 40 ------- 0 6.0 1.0 16 75
r 1.11131 0 3 cbr 210 ------- 0 0.0 5.0 29 74
+ 1.11131 3 4 cbr 210 ------- 0 0.0 5.0 29 74
- 1.11131 3 4 cbr 210 ------- 0 0.0 5.0 29 74
r 1.11147 4 5 cbr 210 ------- 0 0.0 5.0 27 64
r 1.111876 4 6 tcp 1040 ------- 0 1.0 6.0 17 55
+ 1.111876 6 4 ack 40 ------- 0 6.0 1.0 17 78
- 1.111876 6 4 ack 40 ------- 0 6.0 1.0 17 78
+ 1.1125 0 3 cbr 210 ------- 0 0.0 5.0 30 79
- 1.1125 0 3 cbr 210 ------- 0 0.0 5.0 30 79
r 1.112701 1 3 tcp 1040 ------- 0 1.0 6.0 21 62
+ 1.112701 3 4 tcp 1040 ------- 0 1.0 6.0 21 62
- 1.112701 3 4 tcp 1040 ------- 0 1.0 6.0 21 62
r 1.113343 3 4 tcp 1040 ------- 0 1.0 6.0 19 58
+ 1.113343 4 6 tcp 1040 ------- 0 1.0 6.0 19 58
- 1.113343 4 6 tcp 1040 ------- 0 1.0 6.0 19 58
r 1.113455 4 3 ack 40 ------- 0 6.0 1.0 15 71
+ 1.113455 3 1 ack 40 ------- 0 6.0 1.0 15 71
- 1.113455 3 1 ack 40 ------- 0 6.0 1.0 15 71
- 1.113474 1 3 tcp 1040 ------- 0 1.0 6.0 23 66
r 1.113583 3 4 cbr 210 ------- 0 0.0 5.0 28 68
+ 1.113583 4 5 cbr 210 ------- 0 0.0 5.0 28 68
- 1.113583 4 5 cbr 210 ------- 0 0.0 5.0 28 68
r 1.113956 6 4 ack 40 ------- 0 6.0 1.0 17 78
+ 1.113956 4 3 ack 40 ------- 0 6.0 1.0 17 78
- 1.113956 4 3 ack 40 ------- 0 6.0 1.0 17 78
r 1.11465 4 6 tcp 1040 ------- 0 1.0 6.0 18 56
+ 1.11465 6 4 ack 40 ------- 0 6.0 1.0 18 80
- 1.11465 6 4 ack 40 ------- 0 6.0 1.0 18 80
r 1.11506 0 3 cbr 210 ------- 0 0.0 5.0 30 79
+ 1.11506 3 4 cbr 210 ------- 0 0.0 5.0 30 79
- 1.11506 3 4 cbr 210 ------- 0 0.0 5.0 30 79
r 1.115474 1 3 tcp 1040 ------- 0 1.0 6.0 22 63
+ 1.115474 3 4 tcp 1040 ------- 0 1.0 6.0 22 63
- 1.115474 3 4 tcp 1040 ------- 0 1.0 6.0 22 63
r 1.115562 3 1 ack 40 ------- 0 6.0 1.0 15 71
+ 1.115562 1 3 tcp 1040 ------- 0 1.0 6.0 31 81
+ 1.115562 1 3 tcp 1040 ------- 0 1.0 6.0 32 82
r 1.116003 4 5 cbr 210 ------- 0 0.0 5.0 28 68
r 1.116116 3 4 tcp 1040 ------- 0 1.0 6.0 20 59
+ 1.116116 4 6 tcp 1040 ------- 0 1.0 6.0 20 59
- 1.116116 4 6 tcp 1040 ------- 0 1.0 6.0 20 59
r 1.116229 4 3 ack 40 ------- 0 6.0 1.0 16 75
+ 1.116229 3 1 ack 40 ------- 0 6.0 1.0 16 75
- 1.116229 3 1 ack 40 ------- 0 6.0 1.0 16 75
- 1.116248 1 3 tcp 1040 ------- 0 1.0 6.0 24 67
+ 1.11625 0 3 cbr 210 ------- 0 0.0 5.0 31 83
- 1.11625 0 3 cbr 210 ------- 0 0.0 5.0 31 83
r 1.11655 3 4 cbr 210 ------- 0 0.0 5.0 29 74
+ 1.11655 4 5 cbr 210 ------- 0 0.0 5.0 29 74
- 1.11655 4 5 cbr 210 ------- 0 0.0 5.0 29 74
r 1.11673 6 4 ack 40 ------- 0 6.0 1.0 18 80
+ 1.11673 4 3 ack 40 ------- 0 6.0 1.0 18 80
- 1.11673 4 3 ack 40 ------- 0 6.0 1.0 18 80
r 1.117423 4 6 tcp 1040 ------- 0 1.0 6.0 19 58
+ 1.117423 6 4 ack 40 ------- 0 6.0 1.0 19 84
- 1.117423 6 4 ack 40 ------- 0 6.0 1.0 19 84
r 1.118248 1 3 tcp 1040 ------- 0 1.0 6.0 23 66
+ 1.118248 3 4 tcp 1040 ------- 0 1.0 6.0 23 66
- 1.118248 3 4 tcp 1040 ------- 0 1.0 6.0 23 66
r 1.118335 3 1 ack 40 ------- 0 6.0 1.0 16 75