M 1.00000 6 (60.00, 40.00, 0.00), (260.00, 30.00), 5.00
M 1.00000 7 (30.00, 80.00, 0.00), (10.00, 140.00), 5.00
M 1.00000 1 (30.00, 70.00, 0.00), (400.00, 40.00), 5.00
s 1.000000000 _0_ AGT  --- 0 tcp 40 [0 0 0 0] ------- [0:0 6:0 32 0] [0 0] 0 0
r 1.000000000 _0_ RTR  --- 0 tcp 40 [0 0 0 0] ------- [0:0 6:0 32 0] [0 0] 0 0
s 1.000000000 _1_ AGT  --- 1 tcp 40 [0 0 0 0] ------- [1:0 7:0 32 0] [0 0] 0 0
r 1.000000000 _1_ RTR  --- 1 tcp 40 [0 0 0 0] ------- [1:0 7:0 32 0] [0 0] 0 0
s 1.000000000 _2_ AGT  --- 2 cbr 210 [0 0 0 0] ------- [2:0 3:0 32 0] [0] 0 0
r 1.000000000 _2_ RTR  --- 2 cbr 210 [0 0 0 0] ------- [2:0 3:0 32 0] [0] 0 0
s 1.000000000 _0_ RTR  --- 0 AODV 48 [0 0 0 0] ------- [0:255 -1:255 30 0] [0x2 1 1 [6 0] [0 4]] (REQUEST)
s 1.000000000 _1_ RTR  --- 0 AODV 48 [0 0 0 0] ------- [1:255 -1:255 30 0] [0x2 1 1 [7 0] [1 4]] (REQUEST)
s 1.000000000 _2_ RTR  --- 0 AODV 48 [0 0 0 0] ------- [2:255 -1:255 30 0] [0x2 1 1 [3 0] [2 4]] (REQUEST)
s 1.000375000 _1_ MAC  --- 0 AODV 106 [0 ffffffff 1 800] ------- [1:255 -1:255 30 0] [0x2 1 1 [7 0] [1 4]] (REQUEST)
r 1.001223033 _7_ MAC  --- 0 AODV 48 [0 ffffffff 1 800] ------- [1:255 -1:255 30 0] [0x2 1 1 [7 0] [1 4]] (REQUEST)
r 1.001223141 _6_ MAC  --- 0 AODV 48 [0 ffffffff 1 800] ------- [1:255 -1:255 30 0] [0x2 1 1 [7 0] [1 4]] (REQUEST)
r 1.001223149 _3_ MAC  --- 0 AODV 48 [0 ffffffff 1 800] ------- [1:255 -1:255 30 0] [0x2 1 1 [7 0] [1 4]] (REQUEST)
r 1.001223200 _4_ MAC  --- 0 AODV 48 [0 ffffffff 1 800] ------- [1:255 -1:255 30 0] [0x2 1 1 [7 0] [1 4]] (REQUEST)
r 1.001223240 _5_ MAC  --- 0 AODV 48 [0 ffffffff 1 800] ------- [1:255 -1:255 30 0] [0x2 1 1 [7 0] [1 4]] (REQUEST)
r 1.001223641 _0_ MAC  --- 0 AODV 48 [0 ffffffff 1 800] ------- [1:255 -1:255 30 0] [0x2 1 1 [7 0] [1 4]] (REQUEST)
r 1.001248033 _7_ RTR  --- 0 AODV 48 [0 ffffffff 1 800] ------- [1:255 -1:255 30 0] [0x2 1 1 [7 0] [1 4]] (REQUEST)
s 1.001248033 _7_ RTR  --- 0 AODV 44 [0 0 0 0] ------- [7:255 1:255 30 1] [0x4 1 [7 4] 10.000000] (REPLY)
r 1.001248141 _6_ RTR  --- 0 AODV 48 [0 ffffffff 1 800] ------- [1:255 -1:255 30 0] [0x2 1 1 [7 0] [1 4]] (REQUEST)
r 1.001248149 _3_ RTR  --- 0 AODV 48 [0 ffffffff 1 800] ------- [1:255 -1:255 30 0] [0x2 1 1 [7 0] [1 4]] (REQUEST)
r 1.001248200 _4_ RTR  --- 0 AODV 48 [0 ffffffff 1 800] ------- [1:255 -1:255 30 0] [0x2 1 1 [7 0] [1 4]] (REQUEST)
r 1.001248240 _5_ RTR  --- 0 AODV 48 [0 ffffffff 1 800] ------- [1:255 -1:255 30 0] [0x2 1 1 [7 0] [1 4]] (REQUEST)
r 1.001248641 _0_ RTR  --- 0 AODV 48 [0 ffffffff 1 800] ------- [1:255 -1:255 30 0] [0x2 1 1 [7 0] [1 4]] (REQUEST)
s 1.001533641 _0_ MAC  --- 0 AODV 106 [0 ffffffff 0 800] ------- [0:255 -1:255 30 0] [0x2 1 1 [6 0] [0 4]] (REQUEST)
r 1.002382217 _4_ MAC  --- 0 AODV 48 [0 ffffffff 0 800] ------- [0:255 -1:255 30 0] [0x2 1 1 [6 0] [0 4]] (REQUEST)
r 1.002382253 _7_ MAC  --- 0 AODV 48 [0 ffffffff 0 800] ------- [0:255 -1:255 30 0] [0x2 1 1 [6 0] [0 4]] (REQUEST)
r 1.002382282 _1_ MAC  --- 0 AODV 48 [0 ffffffff 0 800] ------- [0:255 -1:255 30 0] [0x2 1 1 [6 0] [0 4]] (REQUEST)
r 1.002382337 _6_ MAC  --- 0 AODV 48 [0 ffffffff 0 800] ------- [0:255 -1:255 30 0] [0x2 1 1 [6 0] [0 4]] (REQUEST)
r 1.002382426 _5_ MAC  --- 0 AODV 48 [0 ffffffff 0 800] ------- [0:255 -1:255 30 0] [0x2 1 1 [6 0] [0 4]] (REQUEST)
r 1.002382431 _3_ MAC  --- 0 AODV 48 [0 ffffffff 0 800] ------- [0:255 -1:255 30 0] [0x2 1 1 [6 0] [0 4]] (REQUEST)
r 1.002407217 _4_ RTR  --- 0 AODV 48 [0 ffffffff 0 800] ------- [0:255 -1:255 30 0] [0x2 1 1 [6 0] [0 4]] (REQUEST)
r 1.002407253 _7_ RTR  --- 0 AODV 48 [0 ffffffff 0 800] ------- [0:255 -1:255 30 0] [0x2 1 1 [6 0] [0 4]] (REQUEST)
r 1.002407282 _1_ RTR  --- 0 AODV 48 [0 ffffffff 0 800] ------- [0:255 -1:255 30 0] [0x2 1 1 [6 0] [0 4]] (REQUEST)
r 1.002407337 _6_ RTR  --- 0 AODV 48 [0 ffffffff 0 800] ------- [0:255 -1:255 30 0] [0x2 1 1 [6 0] [0 4]] (REQUEST)
s 1.002407337 _6_ RTR  --- 0 AODV 44 [0 0 0 0] ------- [6:255 0:255 30 0] [0x4 1 [6 4] 10.000000] (REPLY)
r 1.002407426 _5_ RTR  --- 0 AODV 48 [0 ffffffff 0 800] ------- [0:255 -1:255 30 0] [0x2 1 1 [6 0] [0 4]] (REQUEST)
r 1.002407431 _3_ RTR  --- 0 AODV 48 [0 ffffffff 0 800] ------- [0:255 -1:255 30 0] [0x2 1 1 [6 0] [0 4]] (REQUEST)
s 1.002452253 _7_ MAC  --- 0 ARP 86 [0 ffffffff 7 806] ------- [REQUEST 7/7 0/1]
s 1.002835162 _4_ RTR  --- 0 AODV 48 [0 ffffffff 0 800] ------- [4:255 -1:255 29 0] [0x2 2 1 [6 0] [0 4]] (REQUEST)
r 1.003140286 _1_ MAC  --- 0 ARP 28 [0 ffffffff 7 806] ------- [REQUEST 7/7 0/1]
r 1.003140420 _6_ MAC  --- 0 ARP 28 [0 ffffffff 7 806] ------- [REQUEST 7/7 0/1]
r 1.003140433 _3_ MAC  --- 0 ARP 28 [0 ffffffff 7 806] ------- [REQUEST 7/7 0/1]
r 1.003140456 _4_ MAC  --- 0 ARP 28 [0 ffffffff 7 806] ------- [REQUEST 7/7 0/1]
r 1.003140522 _5_ MAC  --- 0 ARP 28 [0 ffffffff 7 806] ------- [REQUEST 7/7 0/1]
r 1.003140865 _0_ MAC  --- 0 ARP 28 [0 ffffffff 7 806] ------- [REQUEST 7/7 0/1]
s 1.003395286 _1_ MAC  --- 0 RTS 44 [52e 7 1 0] 
s 1.003545365 _1_ RTR  --- 0 AODV 48 [0 ffffffff 0 800] ------- [1:255 -1:255 29 0] [0x2 2 1 [6 0] [0 4]] (REQUEST)
s 1.003594218 _4_ RTR  --- 0 AODV 48 [0 ffffffff 1 800] ------- [4:255 -1:255 29 0] [0x2 2 1 [7 0] [1 4]] (REQUEST)
r 1.003747320 _7_ MAC  --- 0 RTS 44 [52e 7 1 0] 
s 1.003750000 _2_ AGT  --- 3 cbr 210 [0 0 0 0] ------- [2:0 3:0 32 0] [1] 0 0
r 1.003750000 _2_ RTR  --- 3 cbr 210 [0 0 0 0] ------- [2:0 3:0 32 0] [1] 0 0
s 1.003757320 _7_ MAC  --- 0 CTS 38 [3f4 1 0 0] 
r 1.004061353 _1_ MAC  --- 0 CTS 38 [3f4 1 0 0] 
s 1.004071353 _1_ MAC  --- 0 ARP 86 [13a 7 1 806] ------- [REPLY 1/1 7/7]
s 1.004339432 _0_ RTR  --- 0 AODV 48 [0 ffffffff 1 800] ------- [0:255 -1:255 29 0] [0x2 2 1 [7 0] [1 4]] (REQUEST)
s 1.004377759 _6_ RTR  --- 0 AODV 48 [0 ffffffff 1 800] ------- [6:255 -1:255 29 0] [0x2 2 1 [7 0] [1 4]] (REQUEST)
r 1.004759387 _7_ MAC  --- 0 ARP 28 [13a 7 1 806] ------- [REPLY 1/1 7/7]
s 1.004769387 _7_ MAC  --- 0 ACK 38 [0 1 0 0] 
r 1.005073420 _1_ MAC  --- 0 ACK 38 [0 1 0 0] 
s 1.005143420 _1_ MAC  --- 0 AODV 106 [0 ffffffff 1 800] ------- [1:255 -1:255 29 0] [0x2 2 1 [6 0] [0 4]] (REQUEST)
r 1.005991453 _7_ MAC  --- 0 AODV 48 [0 ffffffff 1 800] ------- [1:255 -1:255 29 0] [0x2 2 1 [6 0] [0 4]] (REQUEST)
r 1.005991561 _6_ MAC  --- 0 AODV 48 [0 ffffffff 1 800] ------- [1:255 -1:255 29 0] [0x2 2 1 [6 0] [0 4]] (REQUEST)
r 1.005991569 _3_ MAC  --- 0 AODV 48 [0 ffffffff 1 800] ------- [1:255 -1:255 29 0] [0x2 2 1 [6 0] [0 4]] (REQUEST)
r 1.005991620 _4_ MAC  --- 0 AODV 48 [0 ffffffff 1 800] ------- [1:255 -1:255 29 0] [0x2 2 1 [6 0] [0 4]] (REQUEST)
r 1.005991660 _5_ MAC  --- 0 AODV 48 [0 ffffffff 1 800] ------- [1:255 -1:255 29 0] [0x2 2 1 [6 0] [0 4]] (REQUEST)
r 1.005992061 _0_ MAC  --- 0 AODV 48 [0 ffffffff 1 800] ------- [1:255 -1:255 29 0] [0x2 2 1 [6 0] [0 4]] (REQUEST)
r 1.006016453 _7_ RTR  --- 0 AODV 48 [0 ffffffff 1 800] ------- [1:255 -1:255 29 0] [0x2 2 1 [6 0] [0 4]] (REQUEST)
r 1.006016561 _6_ RTR  --- 0 AODV 48 [0 ffffffff 1 800] ------- [1:255 -1:255 29 0] [0x2 2 1 [6 0] [0 4]] (REQUEST)
r 1.006016569 _3_ RTR  --- 0 AODV 48 [0 ffffffff 1 800] ------- [1:255 -1:255 29 0] [0x2 2 1 [6 0] [0 4]] (REQUEST)
r 1.006016620 _4_ RTR  --- 0 AODV 48 [0 ffffffff 1 800] ------- [1:255 -1:255 29 0] [0x2 2 1 [6 0] [0 4]] (REQUEST)
r 1.006016660 _5_ RTR  --- 0 AODV 48 [0 ffffffff 1 800] ------- [1:255 -1:255 29 0] [0x2 2 1 [6 0] [0 4]] (REQUEST)
r 1.006017061 _0_ RTR  --- 0 AODV 48 [0 ffffffff 1 800] ------- [1:255 -1:255 29 0] [0x2 2 1 [6 0] [0 4]] (REQUEST)
s 1.006141453 _7_ MAC  --- 0 RTS 44 [5ae 1 7 0] 
r 1.006493487 _1_ MAC  --- 0 RTS 44 [5ae 1 7 0] 
s 1.006503487 _1_ MAC  --- 0 CTS 38 [474 7 0 0] 
s 1.006643999 _3_ RTR  --- 0 AODV 48 [0 ffffffff 0 800] ------- [3:255 -1:255 29 0] [0x2 2 1 [6 0] [0 4]] (REQUEST)
r 1.006807520 _7_ MAC  --- 0 CTS 38 [474 7 0 0] 
s 1.006817520 _7_ MAC  --- 0 AODV 102 [13a 1 7 800] ------- [7:255 1:255 30 1] [0x4 1 [7 4] 10.000000] (REPLY)
s 1.007500000 _2_ AGT  --- 4 cbr 210 [0 0 0 0] ------- [2:0 3:0 32 0] [2] 0 0
r 1.007500000 _2_ RTR  --- 4 cbr 210 [0 0 0 0] ------- [2:0 3:0 32 0] [2] 0 0
r 1.007633554 _1_ MAC  --- 0 AODV 44 [13a 1 7 800] ------- [7:255 1:255 30 1] [0x4 1 [7 4] 10.000000] (REPLY)
s 1.007636892 _5_ RTR  --- 0 AODV 48 [0 ffffffff 1 800] ------- [5:255 -1:255 29 0] [0x2 2 1 [7 0] [1 4]] (REQUEST)
s 1.007643554 _1_ MAC  --- 0 ACK 38 [0 7 0 0] 
r 1.007658554 _1_ RTR  --- 0 AODV 44 [13a 1 7 800] ------- [7:255 1:255 30 1] [0x4 1 [7 4] 10.000000] (REPLY)
s 1.007658554 _1_ RTR  --- 1 tcp 40 [0 0 0 0] ------- [1:0 7:0 30 7] [0 0] 0 0
r 1.007947587 _7_ MAC  --- 0 ACK 38 [0 7 0 0] 
s 1.008017754 _4_ MAC  --- 0 AODV 106 [0 ffffffff 4 800] ------- [4:255 -1:255 29 0] [0x2 2 1 [6 0] [0 4]] (REQUEST)
s 1.008807930 _7_ RTR  --- 0 AODV 48 [0 ffffffff 0 800] ------- [7:255 -1:255 29 0] [0x2 2 1 [6 0] [0 4]] (REQUEST)
r 1.008865895 _6_ MAC  --- 0 AODV 48 [0 ffffffff 4 800] ------- [4:255 -1:255 29 0] [0x2 2 1 [6 0] [0 4]] (REQUEST)
r 1.008865954 _1_ MAC  --- 0 AODV 48 [0 ffffffff 4 800] ------- [4:255 -1:255 29 0] [0x2 2 1 [6 0] [0 4]] (REQUEST)
r 1.008865957 _7_ MAC  --- 0 AODV 48 [0 ffffffff 4 800] ------- [4:255 -1:255 29 0] [0x2 2 1 [6 0] [0 4]] (REQUEST)
r 1.008865965 _5_ MAC  --- 0 AODV 48 [0 ffffffff 4 800] ------- [4:255 -1:255 29 0] [0x2 2 1 [6 0] [0 4]] (REQUEST)
r 1.008866052 _3_ MAC  --- 0 AODV 48 [0 ffffffff 4 800] ------- [4:255 -1:255 29 0] [0x2 2 1 [6 0] [0 4]] (REQUEST)
r 1.008866329 _0_ MAC  --- 0 AODV 48 [0 ffffffff 4 800] ------- [4:255 -1:255 29 0] [0x2 2 1 [6 0] [0 4]] (REQUEST)
r 1.008890895 _6_ RTR  --- 0 AODV 48 [0 ffffffff 4 800] ------- [4:255 -1:255 29 0] [0x2 2 1 [6 0] [0 4]] (REQUEST)
r 1.008890954 _1_ RTR  --- 0 AODV 48 [0 ffffffff 4 800] ------- [4:255 -1:255 29 0] [0x2 2 1 [6 0] [0 4]] (REQUEST)
r 1.008890957 _7_ RTR  --- 0 AODV 48 [0 ffffffff 4 800] ------- [4:255 -1:255 29 0] [0x2 2 1 [6 0] [0 4]] (REQUEST)
r 1.008890965 _5_ RTR  --- 0 AODV 48 [0 ffffffff 4 800] ------- [4:255 -1:255 29 0] [0x2 2 1 [6 0] [0 4]] (REQUEST)
r 1.008891052 _3_ RTR  --- 0 AODV 48 [0 ffffffff 4 800] ------- [4:255 -1:255 29 0] [0x2 2 1 [6 0] [0 4]] (REQUEST)
r 1.008891329 _0_ RTR  --- 0 AODV 48 [0 ffffffff 4 800] ------- [4:255 -1:255 29 0] [0x2 2 1 [6 0] [0 4]] (REQUEST)
s 1.008996329 _0_ MAC  --- 0 AODV 106 [0 ffffffff 0 800] ------- [0:255 -1:255 29 0] [0x2 2 1 [7 0] [1 4]] (REQUEST)
s 1.009412910 _3_ RTR  --- 0 AODV 48 [0 ffffffff 1 800] ------- [3:255 -1:255 29 0] [0x2 2 1 [7 0] [1 4]] (REQUEST)
r 1.009844905 _4_ MAC  --- 0 AODV 48 [0 ffffffff 0 800] ------- [0:255 -1:255 29 0] [0x2 2 1 [7 0] [1 4]] (REQUEST)
r 1.009844941 _7_ MAC  --- 0 AODV 48 [0 ffffffff 0 800] ------- [0:255 -1:255 29 0] [0x2 2 1 [7 0] [1 4]] (REQUEST)
r 1.009844970 _1_ MAC  --- 0 AODV 48 [0 ffffffff 0 800] ------- [0:255 -1:255 29 0] [0x2 2 1 [7 0] [1 4]] (REQUEST)
r 1.009845025 _6_ MAC  --- 0 AODV 48 [0 ffffffff 0 800] ------- [0:255 -1:255 29 0] [0x2 2 1 [7 0] [1 4]] (REQUEST)
r 1.009845114 _5_ MAC  --- 0 AODV 48 [0 ffffffff 0 800] ------- [0:255 -1:255 29 0] [0x2 2 1 [7 0] [1 4]] (REQUEST)
r 1.009845119 _3_ MAC  --- 0 AODV 48 [0 ffffffff 0 800] ------- [0:255 -1:255 29 0] [0x2 2 1 [7 0] [1 4]] (REQUEST)
r 1.009869905 _4_ RTR  --- 0 AODV 48 [0 ffffffff 0 800] ------- [0:255 -1:255 29 0] [0x2 2 1 [7 0] [1 4]] (REQUEST)
r 1.009869941 _7_ RTR  --- 0 AODV 48 [0 ffffffff 0 800] ------- [0:255 -1:255 29 0] [0x2 2 1 [7 0] [1 4]] (REQUEST)
r 1.009869970 _1_ RTR  --- 0 AODV 48 [0 ffffffff 0 800] ------- [0:255 -1:255 29 0] [0x2 2 1 [7 0] [1 4]] (REQUEST)
r 1.009870025 _6_ RTR  --- 0 AODV 48 [0 ffffffff 0 800] ------- [0:255 -1:255 29 0] [0x2 2 1 [7 0] [1 4]] (REQUEST)
r 1.009870114 _5_ RTR  --- 0 AODV 48 [0 ffffffff 0 800] ------- [0:255 -1:255 29 0] [0x2 2 1 [7 0] [1 4]] (REQUEST)
r 1.009870119 _3_ RTR  --- 0 AODV 48 [0 ffffffff 0 800] ------- [0:255 -1:255 29 0] [0x2 2 1 [7 0] [1 4]] (REQUEST)
s 1.009934970 _1_ MAC  --- 0 RTS 44 [58e 7 1 0] 
r 1.010287004 _7_ MAC  --- 0 RTS 44 [58e 7 1 0] 
s 1.010297004 _7_ MAC  --- 0 CTS 38 [454 1 0 0] 
r 1.010601037 _1_ MAC  --- 0 CTS 38 [454 1 0 0] 
s 1.010611037 _1_ MAC  --- 1 tcp 98 [13a 7 1 800] ------- [1:0 7:0 30 7] [0 0] 0 0
s 1.011004703 _5_ RTR  --- 0 AODV 48 [0 ffffffff 0 800] ------- [5:255 -1:255 29 0] [0x2 2 1 [6 0] [0 4]] (REQUEST)
s 1.011250000 _2_ AGT  --- 5 cbr 210 [0 0 0 0] ------- [2:0 3:0 32 0] [3] 0 0
r 1.011250000 _2_ RTR  --- 5 cbr 210 [0 0 0 0] ------- [2:0 3:0 32 0] [3] 0 0
r 1.011395071 _7_ MAC  --- 1 tcp 40 [13a 7 1 800] ------- [1:0 7:0 30 7] [0 0] 1 0
s 1.011405071 _7_ MAC  --- 0 ACK 38 [0 1 0 0] 
r 1.011420071 _7_ AGT  --- 1 tcp 40 [13a 7 1 800] ------- [1:0 7:0 30 7] [0 0] 1 0
s 1.011420071 _7_ AGT  --- 6 ack 40 [0 0 0 0] ------- [7:0 1:0 32 0] [0 0] 0 0
r 1.011420071 _7_ RTR  --- 6 ack 40 [0 0 0 0] ------- [7:0 1:0 32 0] [0 0] 0 0
s 1.011420071 _7_ RTR  --- 6 ack 40 [0 0 0 0] ------- [7:0 1:0 30 1] [0 0] 0 0
r 1.011709104 _1_ MAC  --- 0 ACK 38 [0 1 0 0] 
s 1.011779238 _6_ MAC  --- 0 ARP 86 [0 ffffffff 6 806] ------- [REQUEST 6/6 0/0]
r 1.012467343 _5_ MAC  --- 0 ARP 28 [0 ffffffff 6 806] ------- [REQUEST 6/6 0/0]
r 1.012467379 _4_ MAC  --- 0 ARP 28 [0 ffffffff 6 806] ------- [REQUEST 6/6 0/0]
r 1.012467379 _1_ MAC  --- 0 ARP 28 [0 ffffffff 6 806] ------- [REQUEST 6/6 0/0]
r 1.012467405 _7_ MAC  --- 0 ARP 28 [0 ffffffff 6 806] ------- [REQUEST 6/6 0/0]
r 1.012467408 _3_ MAC  --- 0 ARP 28 [0 ffffffff 6 806] ------- [REQUEST 6/6 0/0]
r 1.012467934 _0_ MAC  --- 0 ARP 28 [0 ffffffff 6 806] ------- [REQUEST 6/6 0/0]
s 1.012537343 _5_ MAC  --- 0 AODV 106 [0 ffffffff 5 800] ------- [5:255 -1:255 29 0] [0x2 2 1 [7 0] [1 4]] (REQUEST)
r 1.013385448 _6_ MAC  --- 0 AODV 48 [0 ffffffff 5 800] ------- [5:255 -1:255 29 0] [0x2 2 1 [7 0] [1 4]] (REQUEST)
r 1.013385554 _3_ MAC  --- 0 AODV 48 [0 ffffffff 5 800] ------- [5:255 -1:255 29 0] [0x2 2 1 [7 0] [1 4]] (REQUEST)
r 1.013385554 _4_ MAC  --- 0 AODV 48 [0 ffffffff 5 800] ------- [5:255 -1:255 29 0] [0x2 2 1 [7 0] [1 4]] (REQUEST)
r 1.013385583 _1_ MAC  --- 0 AODV 48 [0 ffffffff 5 800] ------- [5:255 -1:255 29 0] [0x2 2 1 [7 0] [1 4]] (REQUEST)
r 1.013385612 _7_ MAC  --- 0 AODV 48 [0 ffffffff 5 800] ------- [5:255 -1:255 29 0] [0x2 2 1 [7 0] [1 4]] (REQUEST)
r 1.013386128 _0_ MAC  --- 0 AODV 48 [0 ffffffff 5 800] ------- [5:255 -1:255 29 0] [0x2 2 1 [7 0] [1 4]] (REQUEST)
r 1.013410448 _6_ RTR  --- 0 AODV 48 [0 ffffffff 5 800] ------- [5:255 -1:255 29 0] [0x2 2 1 [7 0] [1 4]] (REQUEST)
r 1.013410554 _3_ RTR  --- 0 AODV 48 [0 ffffffff 5 800] ------- [5:255 -1:255 29 0] [0x2 2 1 [7 0] [1 4]] (REQUEST)
r 1.013410554 _4_ RTR  --- 0 AODV 48 [0 ffffffff 5 800] ------- [5:255 -1:255 29 0] [0x2 2 1 [7 0] [1 4]] (REQUEST)
r 1.013410583 _1_ RTR  --- 0 AODV 48 [0 ffffffff 5 800] ------- [5:255 -1:255 29 0] [0x2 2 1 [7 0] [1 4]] (REQUEST)
r 1.013410612 _7_ RTR  --- 0 AODV 48 [0 ffffffff 5 800] ------- [5:255 -1:255 29 0] [0x2 2 1 [7 0] [1 4]] (REQUEST)
r 1.013411128 _0_ RTR  --- 0 AODV 48 [0 ffffffff 5 800] ------- [5:255 -1:255 29 0] [0x2 2 1 [7 0] [1 4]] (REQUEST)
s 1.013455448 _6_ MAC  --- 0 AODV 106 [0 ffffffff 6 800] ------- [6:255 -1:255 29 0] [0x2 2 1 [7 0] [1 4]] (REQUEST)
r 1.014303554 _5_ MAC  --- 0 AODV 48 [0 ffffffff 6 800] ------- [6:255 -1:255 29 0] [0x2 2 1 [7 0] [1 4]] (REQUEST)
r 1.014303590 _4_ MAC  --- 0 AODV 48 [0 ffffffff 6 800] ------- [6:255 -1:255 29 0] [0x2 2 1 [7 0] [1 4]] (REQUEST)
r 1.014303590 _1_ MAC  --- 0 AODV 48 [0 ffffffff 6 800] ------- [6:255 -1:255 29 0] [0x2 2 1 [7 0] [1 4]] (REQUEST)
r 1.014303615 _7_ MAC  --- 0 AODV 48 [0 ffffffff 6 800] ------- [6:255 -1:255 29 0] [0x2 2 1 [7 0] [1 4]] (REQUEST)
r 1.014303619 _3_ MAC  --- 0 AODV 48 [0 ffffffff 6 800] ------- [6:255 -1:255 29 0] [0x2 2 1 [7 0] [1 4]] (REQUEST)
r 1.014304144 _0_ MAC  --- 0 AODV 48 [0 ffffffff 6 800] ------- [6:255 -1:255 29 0] [0x2 2 1 [7 0] [1 4]] (REQUEST)
r 1.014328554 _5_ RTR  --- 0 AODV 48 [0 ffffffff 6 800] ------- [6:255 -1:255 29 0] [0x2 2 1 [7 0] [1 4]] (REQUEST)
r 1.014328590 _4_ RTR  --- 0 AODV 48 [0 ffffffff 6 800] ------- [6:255 -1:255 29 0] [0x2 2 1 [7 0] [1 4]] (REQUEST)
r 1.014328590 _1_ RTR  --- 0 AODV 48 [0 ffffffff 6 800] ------- [6:255 -1:255 29 0] [0x2 2 1 [7 0] [1 4]] (REQUEST)
r 1.014328615 _7_ RTR  --- 0 AODV 48 [0 ffffffff 6 800] ------- [6:255 -1:255 29 0] [0x2 2 1 [7 0] [1 4]] (REQUEST)
r 1.014328619 _3_ RTR  --- 0 AODV 48 [0 ffffffff 6 800] ------- [6:255 -1:255 29 0] [0x2 2 1 [7 0] [1 4]] (REQUEST)
r 1.014329144 _0_ RTR  --- 0 AODV 48 [0 ffffffff 6 800] ------- [6:255 -1:255 29 0] [0x2 2 1 [7 0] [1 4]] (REQUEST)
s 1.014573590 _4_ MAC  --- 0 AODV 106 [0 ffffffff 4 800] ------- [4:255 -1:255 29 0] [0x2 2 1 [7 0] [1 4]] (REQUEST)
s 1.015000000 _2_ AGT  --- 7 cbr 210 [0 0 0 0] ------- [2:0 3:0 32 0] [4] 0 0
r 1.015000000 _2_ RTR  --- 7 cbr 210 [0 0 0 0] ------- [2:0 3:0 32 0] [4] 0 0
r 1.015421731 _6_ MAC  --- 0 AODV 48 [0 ffffffff 4 800] ------- [4:255 -1:255 29 0] [0x2 2 1 [7 0] [1 4]] (REQUEST)
r 1.015421789 _1_ MAC  --- 0 AODV 48 [0 ffffffff 4 800] ------- [4:255 -1:255 29 0] [0x2 2 1 [7 0] [1 4]] (REQUEST)
r 1.015421793 _7_ MAC  --- 0 AODV 48 [0 ffffffff 4 800] ------- [4:255 -1:255 29 0] [0x2 2 1 [7 0] [1 4]] (REQUEST)
r 1.015421800 _5_ MAC  --- 0 AODV 48 [0 ffffffff 4 800] ------- [4:255 -1:255 29 0] [0x2 2 1 [7 0] [1 4]] (REQUEST)
r 1.015421888 _3_ MAC  --- 0 AODV 48 [0 ffffffff 4 800] ------- [4:255 -1:255 29 0] [0x2 2 1 [7 0] [1 4]] (REQUEST)
r 1.015422165 _0_ MAC  --- 0 AODV 48 [0 ffffffff 4 800] ------- [4:255 -1:255 29 0] [0x2 2 1 [7 0] [1 4]] (REQUEST)
r 1.015446731 _6_ RTR  --- 0 AODV 48 [0 ffffffff 4 800] ------- [4:255 -1:255 29 0] [0x2 2 1 [7 0] [1 4]] (REQUEST)
r 1.015446789 _1_ RTR  --- 0 AODV 48 [0 ffffffff 4 800] ------- [4:255 -1:255 29 0] [0x2 2 1 [7 0] [1 4]] (REQUEST)
r 1.015446793 _7_ RTR  --- 0 AODV 48 [0 ffffffff 4 800] ------- [4:255 -1:255 29 0] [0x2 2 1 [7 0] [1 4]] (REQUEST)
r 1.015446800 _5_ RTR  --- 0 AODV 48 [0 ffffffff 4 800] ------- [4:255 -1:255 29 0] [0x2 2 1 [7 0] [1 4]] (REQUEST)
r 1.015446888 _3_ RTR  --- 0 AODV 48 [0 ffffffff 4 800] ------- [4:255 -1:255 29 0] [0x2 2 1 [7 0] [1 4]] (REQUEST)
r 1.015447165 _0_ RTR  --- 0 AODV 48 [0 ffffffff 4 800] ------- [4:255 -1:255 29 0] [0x2 2 1 [7 0] [1 4]] (REQUEST)
s 1.015491888 _3_ MAC  --- 0 AODV 106 [0 ffffffff 3 800] ------- [3:255 -1:255 29 0] [0x2 2 1 [6 0] [0 4]] (REQUEST)
r 1.016340037 _1_ MAC  --- 0 AODV 48 [0 ffffffff 3 800] ------- [3:255 -1:255 29 0] [0x2 2 1 [6 0] [0 4]] (REQUEST)
r 1.016340058 _6_ MAC  --- 0 AODV 48 [0 ffffffff 3 800] ------- [3:255 -1:255 29 0] [0x2 2 1 [6 0] [0 4]] (REQUEST)
r 1.016340068 _7_ MAC  --- 0 AODV 48 [0 ffffffff 3 800] ------- [3:255 -1:255 29 0] [0x2 2 1 [6 0] [0 4]] (REQUEST)
r 1.016340099 _5_ MAC  --- 0 AODV 48 [0 ffffffff 3 800] ------- [3:255 -1:255 29 0] [0x2 2 1 [6 0] [0 4]] (REQUEST)
r 1.016340186 _4_ MAC  --- 0 AODV 48 [0 ffffffff 3 800] ------- [3:255 -1:255 29 0] [0x2 2 1 [6 0] [0 4]] (REQUEST)
r 1.016340678 _0_ MAC  --- 0 AODV 48 [0 ffffffff 3 800] ------- [3:255 -1:255 29 0] [0x2 2 1 [6 0] [0 4]] (REQUEST)
r 1.016365037 _1_ RTR  --- 0 AODV 48 [0 ffffffff 3 800] ------- [3:255 -1:255 29 0] [0x2 2 1 [6 0] [0 4]] (REQUEST)
r 1.016365058 _6_ RTR  --- 0 AODV 48 [0 ffffffff 3 800] ------- [3:255 -1:255 29 0] [0x2 2 1 [6 0] [0 4]] (REQUEST)
r 1.016365068 _7_ RTR  --- 0 AODV 48 [0 ffffffff 3 800] ------- [3:255 -1:255 29 0] [0x2 2 1 [6 0] [0 4]] (REQUEST)
r 1.016365099 _5_ RTR  --- 0 AODV 48 [0 ffffffff 3 800] ------- [3:255 -1:255 29 0] [0x2 2 1 [6 0] [0 4]] (REQUEST)
r 1.016365186 _4_ RTR  --- 0 AODV 48 [0 ffffffff 3 800] ------- [3:255 -1:255 29 0] [0x2 2 1 [6 0] [0 4]] (REQUEST)
r 1.016365678 _0_ RTR  --- 0 AODV 48 [0 ffffffff 3 800] ------- [3:255 -1:255 29 0] [0x2 2 1 [6 0] [0 4]] (REQUEST)
s 1.016430099 _5_ MAC  --- 0 AODV 106 [0 ffffffff 5 800] ------- [5:255 -1:255 29 0] [0x2 2 1 [6 0] [0 4]] (REQUEST)
r 1.017278204 _6_ MAC  --- 0 AODV 48 [0 ffffffff 5 800] ------- [5:255 -1:255 29 0] [0x2 2 1 [6 0] [0 4]] (REQUEST)
r 1.017278309 _3_ MAC  --- 0 AODV 48 [0 ffffffff 5 800] ------- [5:255 -1:255 29 0] [0x2 2 1 [6 0] [0 4]] (REQUEST)
r 1.017278309 _4_ MAC  --- 0 AODV 48 [0 ffffffff 5 800] ------- [5:255 -1:255 29 0] [0x2 2 1 [6 0] [0 4]] (REQUEST)
r 1.017278339 _1_ MAC  --- 0 AODV 48 [0 ffffffff 5 800] ------- [5:255 -1:255 29 0] [0x2 2 1 [6 0] [0 4]] (REQUEST)
r 1.017278368 _7_ MAC  --- 0 AODV 48 [0 ffffffff 5 800] ------- [5:255 -1:255 29 0] [0x2 2 1 [6 0] [0 4]] (REQUEST)
r 1.017278883 _0_ MAC  --- 0 AODV 48 [0 ffffffff 5 800] ------- [5:255 -1:255 29 0] [0x2 2 1 [6 0] [0 4]] (REQUEST)
r 1.017303204 _6_ RTR  --- 0 AODV 48 [0 ffffffff 5 800] ------- [5:255 -1:255 29 0] [0x2 2 1 [6 0] [0 4]] (REQUEST)
r 1.017303309 _3_ RTR  --- 0 AODV 48 [0 ffffffff 5 800] ------- [5:255 -1:255 29 0] [0x2 2 1 [6 0] [0 4]] (REQUEST)
r 1.017303309 _4_ RTR  --- 0 AODV 48 [0 ffffffff 5 800] ------- [5:255 -1:255 29 0] [0x2 2 1 [6 0] [0 4]] (REQUEST)
r 1.017303339 _1_ RTR  --- 0 AODV 48 [0 ffffffff 5 800] ------- [5:255 -1:255 29 0] [0x2 2 1 [6 0] [0 4]] (REQUEST)
r 1.017303368 _7_ RTR  --- 0 AODV 48 [0 ffffffff 5 800] ------- [5:255 -1:255 29 0] [0x2 2 1 [6 0] [0 4]] (REQUEST)
r 1.017303883 _0_ RTR  --- 0 AODV 48 [0 ffffffff 5 800] ------- [5:255 -1:255 29 0] [0x2 2 1 [6 0] [0 4]] (REQUEST)
s 1.017368309 _3_ MAC  --- 0 AODV 106 [0 ffffffff 3 800] ------- [3:255 -1:255 29 0] [0x2 2 1 [7 0] [1 4]] (REQUEST)
r 1.018216459 _1_ MAC  --- 0 AODV 48 [0 ffffffff 3 800] ------- [3:255 -1:255 29 0] [0x2 2 1 [7 0] [1 4]] (REQUEST)
r 1.018216480 _6_ MAC  --- 0 AODV 48 [0 ffffffff 3 800] ------- [3:255 -1:255 29 0] [0x2 2 1 [7 0] [1 4]] (REQUEST)
r 1.018216489 _7_ MAC  --- 0 AODV 48 [0 ffffffff 3 800] ------- [3:255 -1:255 29 0] [0x2 2 1 [7 0] [1 4]] (REQUEST)
r 1.018216520 _5_ MAC  --- 0 AODV 48 [0 ffffffff 3 800] ------- [3:255 -1:255 29 0] [0x2 2 1 [7 0] [1 4]] (REQUEST)
r 1.018216608 _4_ MAC  --- 0 AODV 48 [0 ffffffff 3 800] ------- [3:255 -1:255 29 0] [0x2 2 1 [7 0] [1 4]] (REQUEST)
r 1.018217100 _0_ MAC  --- 0 AODV 48 [0 ffffffff 3 800] ------- [3:255 -1:255 29 0] [0x2 2 1 [7 0] [1 4]] (REQUEST)
r 1.018241459 _1_ RTR  --- 0 AODV 48 [0 ffffffff 3 800] ------- [3:255 -1:255 29 0] [0x2 2 1 [7 0] [1 4]] (REQUEST)
r 1.018241480 _6_ RTR  --- 0 AODV 48 [0 ffffffff 3 800] ------- [3:255 -1:255 29 0] [0x2 2 1 [7 0] [1 4]] (REQUEST)
r 1.018241489 _7_ RTR  --- 0 AODV 48 [0 ffffffff 3 800] ------- [3:255 -1:255 29 0] [0x2 2 1 [7 0] [1 4]] (REQUEST)
r 1.018241520 _5_ RTR  --- 0 AODV 48 [0 ffffffff 3 800] ------- [3:255 -1:255 29 0] [0x2 2 1 [7 0] [1 4]] (REQUEST)
r 1.018241608 _4_ RTR  --- 0 AODV 48 [0 ffffffff 3 800] ------- [3:255 -1:255 29 0] [0x2 2 1 [7 0] [1 4]] (REQUEST)
r 1.018242100 _0_ RTR  --- 0 AODV 48 [0 ffffffff 3 800] ------- [3:255 -1:255 29 0] [0x2 2 1 [7 0] [1 4]] (REQUEST)
s 1.018326489 _7_ MAC  --- 0 AODV 106 [0 ffffffff 7 800] ------- [7:255 -1:255 29 0] [0x2 2 1 [6 0] [0 4]] (REQUEST)
s 1.018750000 _2_ AGT  --- 8 cbr 210 [0 0 0 0] ------- [2:0 3:0 32 0] [5] 0 0
r 1.018750000 _2_ RTR  --- 8 cbr 210 [0 0 0 0] ------- [2:0 3:0 32 0] [5] 0 0
r 1.019174523 _1_ MAC  --- 0 AODV 48 [0 ffffffff 7 800] ------- [7:255 -1:255 29 0] [0x2 2 1 [6 0] [0 4]] (REQUEST)
r 1.019174656 _6_ MAC  --- 0 AODV 48 [0 ffffffff 7 800] ------- [7:255 -1:255 29 0] [0x2 2 1 [6 0] [0 4]] (REQUEST)
r 1.019174669 _3_ MAC  --- 0 AODV 48 [0 ffffffff 7 800] ------- [7:255 -1:255 29 0] [0x2 2 1 [6 0] [0 4]] (REQUEST)
r 1.019174692 _4_ MAC  --- 0 AODV 48 [0 ffffffff 7 800] ------- [7:255 -1:255 29 0] [0x2 2 1 [6 0] [0 4]] (REQUEST)
r 1.019174758 _5_ MAC  --- 0 AODV 48 [0 ffffffff 7 800] ------- [7:255 -1:255 29 0] [0x2 2 1 [6 0] [0 4]] (REQUEST)
r 1.019175101 _0_ MAC  --- 0 AODV 48 [0 ffffffff 7 800] ------- [7:255 -1:255 29 0] [0x2 2 1 [6 0] [0 4]] (REQUEST)
r 1.019199523 _1_ RTR  --- 0 AODV 48 [0 ffffffff 7 800] ------- [7:255 -1:255 29 0] [0x2 2 1 [6 0] [0 4]] (REQUEST)
r 1.019199656 _6_ RTR  --- 0 AODV 48 [0 ffffffff 7 800] ------- [7:255 -1:255 29 0] [0x2 2 1 [6 0] [0 4]] (REQUEST)
r 1.019199669 _3_ RTR  --- 0 AODV 48 [0 ffffffff 7 800] ------- [7:255 -1:255 29 0] [0x2 2 1 [6 0] [0 4]] (REQUEST)
r 1.019199692 _4_ RTR  --- 0 AODV 48 [0 ffffffff 7 800] ------- [7:255 -1:255 29 0] [0x2 2 1 [6 0] [0 4]] (REQUEST)
r 1.019199758 _5_ RTR  --- 0 AODV 48 [0 ffffffff 7 800] ------- [7:255 -1:255 29 0] [0x2 2 1 [6 0] [0 4]] (REQUEST)
r 1.019200101 _0_ RTR  --- 0 AODV 48 [0 ffffffff 7 800] ------- [7:255 -1:255 29 0] [0x2 2 1 [6 0] [0 4]] (REQUEST)
s 1.019285101 _0_ MAC  --- 0 RTS 44 [52e 6 0 0] 
r 1.019637797 _6_ MAC  --- 0 RTS 44 [52e 6 0 0] 
s 1.019647797 _6_ MAC  --- 0 CTS 38 [3f4 0 0 0] 
r 1.019952493 _0_ MAC  --- 0 CTS 38 [3f4 0 0 0] 
s 1.019962493 _0_ MAC  --- 0 ARP 86 [13a 6 0 806] ------- [REPLY 0/0 6/6]
r 1.020651189 _6_ MAC  --- 0 ARP 28 [13a 6 0 806] ------- [REPLY 0/0 6/6]
s 1.020661189 _6_ MAC  --- 0 ACK 38 [0 0 0 0] 
r 1.020965885 _0_ MAC  --- 0 ACK 38 [0 0 0 0] 
s 1.021055356 _7_ MAC  --- 0 RTS 44 [58e 1 7 0] 
r 1.021407390 _1_ MAC  --- 0 RTS 44 [58e 1 7 0] 
s 1.021417390 _1_ MAC  --- 0 CTS 38 [454 7 0 0] 
r 1.021721423 _7_ MAC  --- 0 CTS 38 [454 7 0 0] 
s 1.021731423 _7_ MAC  --- 6 ack 98 [13a 1 7 800] ------- [7:0 1:0 30 1] [0 0] 0 0
s 1.022500000 _2_ AGT  --- 9 cbr 210 [0 0 0 0] ------- [2:0 3:0 32 0] [6] 0 0
r 1.022500000 _2_ RTR  --- 9 cbr 210 [0 0 0 0] ------- [2:0 3:0 32 0] [6] 0 0
r 1.022515457 _1_ MAC  --- 6 ack 40 [13a 1 7 800] ------- [7:0 1:0 30 1] [0 0] 1 0
s 1.022525457 _1_ MAC  --- 0 ACK 38 [0 7 0 0] 
r 1.022540457 _1_ AGT  --- 6 ack 40 [13a 1 7 800] ------- [7:0 1:0 30 1] [0 0] 1 0
s 1.022540457 _1_ AGT  --- 10 tcp 1040 [0 0 0 0] ------- [1:0 7:0 32 0] [1 0] 0 0
r 1.022540457 _1_ RTR  --- 10 tcp 1040 [0 0 0 0] ------- [1:0 7:0 32 0] [1 0] 0 0
s 1.022540457 _1_ AGT  --- 11 tcp 1040 [0 0 0 0] ------- [1:0 7:0 32 0] [2 0] 0 0
r 1.022540457 _1_ RTR  --- 11 tcp 1040 [0 0 0 0] ------- [1:0 7:0 32 0] [2 0] 0 0
s 1.022540457 _1_ RTR  --- 10 tcp 1040 [0 0 0 0] ------- [1:0 7:0 30 7] [1 0] 0 0
s 1.022540457 _1_ RTR  --- 11 tcp 1040 [0 0 0 0] ------- [1:0 7:0 30 7] [2 0] 0 0
r 1.022829491 _7_ MAC  --- 0 ACK 38 [0 7 0 0] 
s 1.023079457 _1_ MAC  --- 0 RTS 44 [24ce 7 1 0] 
r 1.023431491 _7_ MAC  --- 0 RTS 44 [24ce 7 1 0] 
s 1.023441491 _7_ MAC  --- 0 CTS 38 [2394 1 0 0] 
r 1.023745525 _1_ MAC  --- 0 CTS 38 [2394 1 0 0] 
s 1.023755525 _1_ MAC  --- 10 tcp 1098 [13a 7 1 800] ------- [1:0 7:0 30 7] [1 0] 0 0
s 1.026250000 _2_ AGT  --- 12 cbr 210 [0 0 0 0] ------- [2:0 3:0 32 0] [7] 0 0
r 1.026250000 _2_ RTR  --- 12 cbr 210 [0 0 0 0] ------- [2:0 3:0 32 0] [7] 0 0
s 1.030000000 _2_ AGT  --- 13 cbr 210 [0 0 0 0] ------- [2:0 3:0 32 0] [8] 0 0
r 1.030000000 _2_ RTR  --- 13 cbr 210 [0 0 0 0] ------- [2:0 3:0 32 0] [8] 0 0
r 1.032539558 _7_ MAC  --- 10 tcp 1040 [13a 7 1 800] ------- [1:0 7:0 30 7] [1 0] 1 0
s 1.032549558 _7_ MAC  --- 0 ACK 38 [0 1 0 0] 
r 1.032564558 _7_ AGT  --- 10 tcp 1040 [13a 7 1 800] ------- [1:0 7:0 30 7] [1 0] 1 0
s 1.032564558 _7_ AGT  --- 14 ack 40 [0 0 0 0] ------- [7:0 1:0 32 0] [1 0] 0 0
r 1.032564558 _7_ RTR  --- 14 ack 40 [0 0 0 0] ------- [7:0 1:0 32 0] [1 0] 0 0
s 1.032564558 _7_ RTR  --- 14 ack 40 [0 0 0 0] ------- [7:0 1:0 30 1] [1 0] 0 0
r 1.032853592 _1_ MAC  --- 0 ACK 38 [0 1 0 0] 
s 1.032963592 _1_ MAC  --- 0 RTS 44 [24ce 7 1 0] 
r 1.033315626 _7_ MAC  --- 0 RTS 44 [24ce 7 1 0] 
s 1.033325626 _7_ MAC  --- 0 CTS 38 [2394 1 0 0] 
r 1.033629660 _1_ MAC  --- 0 CTS 38 [2394 1 0 0] 
s 1.033639660 _1_ MAC  --- 11 tcp 1098 [13a 7 1 800] ------- [1:0 7:0 30 7] [2 0] 0 0
s 1.033750000 _2_ AGT  --- 15 cbr 210 [0 0 0 0] ------- [2:0 3:0 32 0] [9] 0 0
r 1.033750000 _2_ RTR  --- 15 cbr 210 [0 0 0 0] ------- [2:0 3:0 32 0] [9] 0 0
s 1.037500000 _2_ AGT  --- 16 cbr 210 [0 0 0 0] ------- [2:0 3:0 32 0] [10] 0 0
r 1.037500000 _2_ RTR  --- 16 cbr 210 [0 0 0 0] ------- [2:0 3:0 32 0] [10] 0 0
s 1.041250000 _2_ AGT  --- 17 cbr 210 [0 0 0 0] ------- [2:0 3:0 32 0] [11] 0 0
r 1.041250000 _2_ RTR  --- 17 cbr 210 [0 0 0 0] ------- [2:0 3:0 32 0] [11] 0 0
r 1.042423694 _7_ MAC  --- 11 tcp 1040 [13a 7 1 800] ------- [1:0 7:0 30 7] [2 0] 1 0
s 1.042433694 _7_ MAC  --- 0 ACK 38 [0 1 0 0] 
r 1.042448694 _7_ AGT  --- 11 tcp 1040 [13a 7 1 800] ------- [1:0 7:0 30 7] [2 0] 1 0
s 1.042448694 _7_ AGT  --- 18 ack 40 [0 0 0 0] ------- [7:0 1:0 32 0] [2 0] 0 0
r 1.042448694 _7_ RTR  --- 18 ack 40 [0 0 0 0] ------- [7:0 1:0 32 0] [2 0] 0 0
s 1.042448694 _7_ RTR  --- 18 ack 40 [0 0 0 0] ------- [7:0 1:0 30 1] [2 0] 0 0
r 1.042737728 _1_ MAC  --- 0 ACK 38 [0 1 0 0] 
s 1.043027862 _6_ MAC  --- 0 RTS 44 [5ae 0 6 0] 
r 1.043380558 _0_ MAC  --- 0 RTS 44 [5ae 0 6 0] 
s 1.043390558 _0_ MAC  --- 0 CTS 38 [474 6 0 0] 
r 1.043695253 _6_ MAC  --- 0 CTS 38 [474 6 0 0] 
s 1.043705253 _6_ MAC  --- 0 AODV 102 [13a 0 6 800] ------- [6:255 0:255 30 0] [0x4 1 [6 4] 10.000000] (REPLY)
r 1.044521949 _0_ MAC  --- 0 AODV 44 [13a 0 6 800] ------- [6:255 0:255 30 0] [0x4 1 [6 4] 10.000000] (REPLY)
s 1.044531949 _0_ MAC  --- 0 ACK 38 [0 6 0 0] 
r 1.044546949 _0_ RTR  --- 0 AODV 44 [13a 0 6 800] ------- [6:255 0:255 30 0] [0x4 1 [6 4] 10.000000] (REPLY)
s 1.044546949 _0_ RTR  --- 0 tcp 40 [0 0 0 0] ------- [0:0 6:0 30 6] [0 0] 0 0
r 1.044836645 _6_ MAC  --- 0 ACK 38 [0 6 0 0] 
s 1.044966561 _7_ MAC  --- 0 RTS 44 [58e 1 7 0] 
s 1.045000000 _2_ AGT  --- 19 cbr 210 [0 0 0 0] ------- [2:0 3:0 32 0] [12] 0 0
r 1.045000000 _2_ RTR  --- 19 cbr 210 [0 0 0 0] ------- [2:0 3:0 32 0] [12] 0 0
r 1.045318595 _1_ MAC  --- 0 RTS 44 [58e 1 7 0] 
s 1.045328595 _1_ MAC  --- 0 CTS 38 [454 7 0 0] 
r 1.045632629 _7_ MAC  --- 0 CTS 38 [454 7 0 0] 
s 1.045642629 _7_ MAC  --- 14 ack 98 [13a 1 7 800] ------- [7:0 1:0 30 1] [1 0] 0 0
r 1.046426663 _1_ MAC  --- 14 ack 40 [13a 1 7 800] ------- [7:0 1:0 30 1] [1 0] 1 0
s 1.046436663 _1_ MAC  --- 0 ACK 38 [0 7 0 0] 
r 1.046451663 _1_ AGT  --- 14 ack 40 [13a 1 7 800] ------- [7:0 1:0 30 1] [1 0] 1 0
s 1.046451663 _1_ AGT  --- 20 tcp 1040 [0 0 0 0] ------- [1:0 7:0 32 0] [3 0] 0 0
r 1.046451663 _1_ RTR  --- 20 tcp 1040 [0 0 0 0] ------- [1:0 7:0 32 0] [3 0] 0 0
s 1.046451663 _1_ AGT  --- 21 tcp 1040 [0 0 0 0] ------- [1:0 7:0 32 0] [4 0] 0 0
r 1.046451663 _1_ RTR  --- 21 tcp 1040 [0 0 0 0] ------- [1:0 7:0 32 0] [4 0] 0 0